<?xml version="1.0"?>
<VTKFile type="ImageData" version="0.1" byte_order="LittleEndian">
  <ImageData WholeExtent="0 29 0 29 0 29" Origin="0 0 0" Spacing="1 1 1">
    <Piece Extent="0 29 0 29 0 29">
      <PointData Scalars="temperature">
        <DataArray type="Float64" Name="temperature" format="ascii">
0 0 0 0 0 0 0 0 0 0 0 0 0 0 0 0 0 0 0 0 0 0 0 0 0 0 0 0 0 0 0 0 0 0 0 0 0 0 0 0 0 0 0 0 0 0 0 0 0 0 0 0 0 0 0 0 0 0 0 0 0 0 0 0 0 0 0 0 0 0 0 0 0 0 0 0 0 0 0 0 0 0 0 0 0 0 0 0 0 0 0 0 0 0 0 0 0 0 0 0 0 0 0 0 0 0 0 0 0 0 0 0 0 0 0 0 0 0 0 0 0 0 0 0 0 0 0 0 0 0 0 0 0 0 0 0 0 0 0 0 0 0 0 0 0 0 0 0 0 0 0 0 0 0 0 0 0 0 0 0 0 0 0 0 0 0 0 0 0 0 0 0 0 0 0 0 0 0 0 0 0 0 0 0 0 0 0 0 0 0 0 0 0 0 0 0 0 0 0 0 0 0 0 0 0 0 0 0 0 0 0 0 0 0 0 0 0 0 0 0 0 0 0 0 0 0 0 0 0 0 0 0 0 0 0 0 0 0 0 0 0 0 0 0 0 0 0 0 0 0 0 0 0 0 0 0 0 0 0 0 0 0 0 0 0 0 0 0 0 0 0 0 0 0 0 0 0 0 0 0 0 0 0 0 0 0 0 0 0 0 0 0 0 0 0 0 0 0 0 0 0 0 0 0 0 0 0 0 0 0 0 0 0 0 0 0 0 0 0 0 0 0 0 0 0 0 0 0 0 0 0 0 0 0 0 0 0 0 0 0 0 0 0 0 0 0 0 0 0 0 0 0 0 0 0 0 0 0 0 0 0 0 0 0 0 0 0 0 0 0 0 0 0 0 0 0 0 0 0 0 0 0 0 0 0 0 0 0 0 0 0 0 0 0 0 0 0 0 0 0 0 0 0 0 0 0 0 0 0 0 0 0 0 0 0 0 0 0 0 0 0 0 0 0 0 0 0 0 0 0 0 0 0 0 0 0 0 0 0 0 0 0 0 0 0 0 0 0 0 0 0 0 0 0 0 0 0 0 0 0 0 0 0 0 0 0 0 0 0 0 0 0 0 0 0 0 0 0 0 0 0 0 0 0 0 0 0 0 0 0 0 0 0 0 0 0 0 0 0 0 0 0 0 0 0 0 0 0 0 0 0 0 0 0 0 0 0 0 0 0 0 0 0 0 0 0 0 0 0 0 0 0 0 0 0 0 0 0 0 0 0 0 0 0 0 0 0 0 0 0 0 0 0 0 0 0 0 0 0 0 0 0 0 0 0 0 0 0 0 0 0 0 0 0 0 0 0 0 0 0 0 0 0 0 0 0 0 0 0 0 0 0 0 0 0 0 0 0 0 0 0 0 0 0 0 0 0 0 0 0 0 0 0 0 0 0 0 0 0 0 0 0 0 0 0 0 0 0 0 0 0 0 0 0 0 0 0 0 0 0 0 0 0 0 0 0 0 0 0 0 0 0 0 0 0 0 0 0 0 0 0 0 0 0 0 0 0 0 0 0 0 0 0 0 0 0 0 0 0 0 0 0 0 0 0 0 0 0 0 0 0 0 0 0 0 0 0 0 0 0 0 0 0 0 0 0 0 0 0 0 0 0 0 0 0 0 0 0 0 0 0 0 0 0 0 0 0 0 0 0 0 0 0 0 0 0 0 0 0 0 0 0 0 0 0 0 0 0 0 0 0 0 0 0 0 0 0 0 0 0 0 0 0 0 0 0 0 0 0 0 0 0 0 0 0 0 0 0 0 0 0 0 0 0 0 0 0 0 0 0 0 0 0 0 0 0 0 0 0 0 0 0 0 0 0 0 0 0 0 0 0 0 0 0 0 0 0 0 0 0 0 0 0 0 0 0 0 0 0 0 0 0 0 0 0 0 0 0 0 0 0 0 0 0 0 0 0 0 0 0 0 0 0 0 0 0 0 0 0 0 0 0 0 0 0 0 0 0 0 0 0 0 0 0 0 0 0 0 0 0 0 0 0 0 0 0 0 0 0 0 0 0 0 0 0 0 0 0 0 0 0 0 0 0 0 0 0 0 0 0 0 0 0 0 0 0 0 0 0 0 0 0 0 0 0 0 0 0 0 0 0 74.8872 74.9248 74.9248 74.8873 0.0750708 74.8873 74.9248 74.9248 74.9248 74.9248 74.9248 74.9248 74.9248 74.9248 74.9248 74.9248 74.9248 74.9248 74.9248 74.9248 74.9248 74.9248 74.9248 74.9248 74.9248 74.9248 74.9248 74.8872 0 0 74.9248 74.9623 74.9623 74.9248 0.075146 74.9248 74.9623 74.9624 74.9624 74.9624 74.9624 74.9624 74.9624 74.9624 74.9624 74.9624 74.9624 74.9624 74.9624 74.9624 74.9624 74.9624 74.9624 74.9624 74.9624 74.9624 74.9623 74.9248 0 0 74.9248 74.9623 74.9623 74.9248 0.0751649 74.9248 74.9624 74.9624 74.9624 74.9624 74.9624 74.9624 74.9624 74.9624 74.9624 74.9624 74.9624 74.9624 74.9624 74.9624 74.9624 74.9624 74.9624 74.9624 74.9624 74.9624 74.9624 74.9248 0 0 74.8873 74.9248 74.9248 74.8873 0.112606 74.9249 74.9624 74.9624 74.9624 74.9624 74.9624 74.9624 74.9624 74.9624 74.9624 74.9624 74.9624 74.9624 74.9624 74.9624 74.9624 74.9624 74.9624 74.9624 74.9624 74.9624 74.9624 74.9248 0 0 0.0750708 0.075146 0.0751649 0.112606 74.8874 74.9623 74.9624 74.9624 74.9624 74.9624 74.9624 74.9624 74.9624 74.9624 74.9624 74.9624 74.9624 74.9624 74.9624 74.9624 74.9624 74.9624 74.9624 74.9624 74.9624 74.9624 74.9624 74.9248 0 0 74.8873 74.9248 74.9248 74.9249 74.9623 74.9624 74.9624 74.9624 74.9624 74.9624 74.9624 74.9624 74.9624 74.9624 74.9624 74.9624 74.9624 74.9624 74.9624 74.9624 74.9624 74.9624 74.9624 74.9624 74.9624 74.9624 74.9624 74.9248 0 0 74.9248 74.9623 74.9624 74.9624 74.9624 74.9624 74.9624 74.9624 74.9624 74.9624 74.9624 74.9624 74.9624 74.9624 74.9624 74.9624 74.9624 74.9624 74.9624 74.9624 74.9624 74.9624 74.9624 74.9624 74.9624 74.9624 74.9624 74.9248 0 0 74.9248 74.9624 74.9624 74.9624 74.9624 74.9624 74.9624 74.9624 74.9624 74.9624 74.9624 74.9624 74.9624 74.9624 74.9624 74.9624 74.9624 74.9624 74.9624 74.9624 74.9624 74.9624 74.9624 74.9624 74.9624 74.9624 74.9624 74.9248 0 0 74.9248 74.9624 74.9624 74.9624 74.9624 74.9624 74.9624 74.9624 74.9624 74.9624 74.9624 74.9624 74.9624 74.9624 74.9624 74.9624 74.9624 74.9624 74.9624 74.9624 74.9624 74.9624 74.9624 74.9624 74.9624 74.9624 74.9624 74.9248 0 0 74.9248 74.9624 74.9624 74.9624 74.9624 74.9624 74.9624 74.9624 74.9624 74.9624 74.9624 74.9624 74.9624 74.9624 74.9624 74.9624 74.9624 74.9624 74.9624 74.9624 74.9624 74.9624 74.9624 74.9624 74.9624 74.9624 74.9624 74.9248 0 0 74.9248 74.9624 74.9624 74.9624 74.9624 74.9624 74.9624 74.9624 74.9624 74.9624 74.9624 74.9624 74.9624 74.9624 74.9624 74.9624 74.9624 74.9624 74.9624 74.9624 74.9624 74.9624 74.9624 74.9624 74.9624 74.9624 74.9624 74.9248 0 0 74.9248 74.9624 74.9624 74.9624 74.9624 74.9624 74.9624 74.9624 74.9624 74.9624 74.9624 74.9624 74.9624 74.9624 74.9624 74.9624 74.9624 74.9624 74.9624 74.9624 74.9624 74.9624 74.9624 74.9624 74.9624 74.9624 74.9624 74.9248 0 0 74.9248 74.9624 74.9624 74.9624 74.9624 74.9624 74.9624 74.9624 74.9624 74.9624 74.9624 74.9624 74.9624 74.9624 74.9624 74.9624 74.9624 74.9624 74.9624 74.9624 74.9624 74.9624 74.9624 74.9624 74.9624 74.9624 74.9624 74.9248 0 0 74.9248 74.9624 74.9624 74.9624 74.9624 74.9624 74.9624 74.9624 74.9624 74.9624 74.9624 74.9624 74.9624 74.9624 74.9624 74.9624 74.9624 74.9624 74.9624 74.9624 74.9624 74.9624 74.9624 74.9624 74.9624 74.9624 74.9624 74.9248 0 0 74.9248 74.9624 74.9624 74.9624 74.9624 74.9624 74.9624 74.9624 74.9624 74.9624 74.9624 74.9624 74.9624 74.9624 74.9624 74.9624 74.9624 74.9624 74.9624 74.9624 74.9624 74.9624 74.9624 74.9624 74.9624 74.9624 74.9624 74.9248 0 0 74.9248 74.9624 74.9624 74.9624 74.9624 74.9624 74.9624 74.9624 74.9624 74.9624 74.9624 74.9624 74.9624 74.9624 74.9624 74.9624 74.9624 74.9624 74.9624 74.9624 74.9624 74.9624 74.9624 74.9624 74.9624 74.9624 74.9624 74.9248 0 0 74.9248 74.9624 74.9624 74.9624 74.9624 74.9624 74.9624 74.9624 74.9624 74.9624 74.9624 74.9624 74.9624 74.9624 74.9624 74.9624 74.9624 74.9624 74.9624 74.9624 74.9624 74.9624 74.9624 74.9624 74.9624 74.9624 74.9624 74.9248 0 0 74.9248 74.9624 74.9624 74.9624 74.9624 74.9624 74.9624 74.9624 74.9624 74.9624 74.9624 74.9624 74.9624 74.9624 74.9624 74.9624 74.9624 74.9624 74.9624 74.9624 74.9624 74.9624 74.9624 74.9624 74.9624 74.9624 74.9624 74.9248 0 0 74.9248 74.9624 74.9624 74.9624 74.9624 74.9624 74.9624 74.9624 74.9624 74.9624 74.9624 74.9624 74.9624 74.9624 74.9624 74.9624 74.9624 74.9624 74.9624 74.9624 74.9624 74.9624 74.9624 74.9624 74.9624 74.9624 74.9624 74.9248 0 0 74.9248 74.9624 74.9624 74.9624 74.9624 74.9624 74.9624 74.9624 74.9624 74.9624 74.9624 74.9624 74.9624 74.9624 74.9624 74.9624 74.9624 74.9624 74.9624 74.9624 74.9624 74.9624 74.9624 74.9624 74.9624 74.9624 74.9624 74.9248 0 0 74.9248 74.9624 74.9624 74.9624 74.9624 74.9624 74.9624 74.9624 74.9624 74.9624 74.9624 74.9624 74.9624 74.9624 74.9624 74.9624 74.9624 74.9624 74.9624 74.9624 74.9624 74.9624 74.9624 74.9624 74.9624 74.9624 74.9624 74.9248 0 0 74.9248 74.9624 74.9624 74.9624 74.9624 74.9624 74.9624 74.9624 74.9624 74.9624 74.9624 74.9624 74.9624 74.9624 74.9624 74.9624 74.9624 74.9624 74.9624 74.9624 74.9624 74.9624 74.9624 74.9624 74.9624 74.9624 74.9624 74.9248 0 0 74.9248 74.9624 74.9624 74.9624 74.9624 74.9624 74.9624 74.9624 74.9624 74.9624 74.9624 74.9624 74.9624 74.9624 74.9624 74.9624 74.9624 74.9624 74.9624 74.9624 74.9624 74.9624 74.9624 74.9624 74.9624 74.9624 74.9624 74.9248 0 0 74.9248 74.9624 74.9624 74.9624 74.9624 74.9624 74.9624 74.9624 74.9624 74.9624 74.9624 74.9624 74.9624 74.9624 74.9624 74.9624 74.9624 74.9624 74.9624 74.9624 74.9624 74.9624 74.9624 74.9624 74.9624 74.9624 74.9624 74.9248 0 0 74.9248 74.9624 74.9624 74.9624 74.9624 74.9624 74.9624 74.9624 74.9624 74.9624 74.9624 74.9624 74.9624 74.9624 74.9624 74.9624 74.9624 74.9624 74.9624 74.9624 74.9624 74.9624 74.9624 74.9624 74.9624 74.9624 74.9624 74.9248 0 0 74.9248 74.9624 74.9624 74.9624 74.9624 74.9624 74.9624 74.9624 74.9624 74.9624 74.9624 74.9624 74.9624 74.9624 74.9624 74.9624 74.9624 74.9624 74.9624 74.9624 74.9624 74.9624 74.9624 74.9624 74.9624 74.9624 74.9624 74.9248 0 0 74.9248 74.9623 74.9624 74.9624 74.9624 74.9624 74.9624 74.9624 74.9624 74.9624 74.9624 74.9624 74.9624 74.9624 74.9624 74.9624 74.9624 74.9624 74.9624 74.9624 74.9624 74.9624 74.9624 74.9624 74.9624 74.9624 74.9623 74.9248 0 0 74.8872 74.9248 74.9248 74.9248 74.9248 74.9248 74.9248 74.9248 74.9248 74.9248 74.9248 74.9248 74.9248 74.9248 74.9248 74.9248 74.9248 74.9248 74.9248 74.9248 74.9248 74.9248 74.9248 74.9248 74.9248 74.9248 74.9248 74.8872 0 0 0 0 0 0 0 0 0 0 0 0 0 0 0 0 0 0 0 0 0 0 0 0 0 0 0 0 0 0 0 0 0 0 0 0 0 0 0 0 0 0 0 0 0 0 0 0 0 0 0 0 0 0 0 0 0 0 0 0 0 0 74.9248 74.9623 74.9623 74.9248 0.0751458 74.9248 74.9623 74.9624 74.9624 74.9624 74.9624 74.9624 74.9624 74.9624 74.9624 74.9624 74.9624 74.9624 74.9624 74.9624 74.9624 74.9624 74.9624 74.9624 74.9624 74.9624 74.9623 74.9248 0 0 74.9623 74.9999 74.9999 74.9624 0.0750236 74.9624 74.9999 75 75 75 75 75 75 75 75 75 75 75 75 75 75 75 75 75 75 75 74.9999 74.9623 0 0 74.9623 74.9999 74.9999 74.9624 0.0752399 74.9624 75 75 75 75 75 75 75 75 75 75 75 75 75 75 75 75 75 75 75 75 75 74.9624 0 0 74.9248 74.9624 74.9624 74.9249 0.112719 74.9624 75 75 75 75 75 75 75 75 75 75 75 75 75 75 75 75 75 75 75 75 75 74.9624 0 0 0.0751458 0.0750236 0.0752399 0.112719 74.9249 74.9999 75 75 75 75 75 75 75 75 75 75 75 75 75 75 75 75 75 75 75 75 75 74.9624 0 0 74.9248 74.9624 74.9624 74.9624 74.9999 75 75 75 75 75 75 75 75 75 75 75 75 75 75 75 75 75 75 75 75 75 75 74.9624 0 0 74.9623 74.9999 75 75 75 75 75 75 75 75 75 75 75 75 75 75 75 75 75 75 75 75 75 75 75 75 75 74.9624 0 0 74.9624 75 75 75 75 75 75 75 75 75 75 75 75 75 75 75 75 75 75 75 75 75 75 75 75 75 75 74.9624 0 0 74.9624 75 75 75 75 75 75 75 75 75 75 75 75 75 75 75 75 75 75 75 75 75 75 75 75 75 75 74.9624 0 0 74.9624 75 75 75 75 75 75 75 75 75 75 75 75 75 75 75 75 75 75 75 75 75 75 75 75 75 75 74.9624 0 0 74.9624 75 75 75 75 75 75 75 75 75 75 75 75 75 75 75 75 75 75 75 75 75 75 75 75 75 75 74.9624 0 0 74.9624 75 75 75 75 75 75 75 75 75 75 75 75 75 75 75 75 75 75 75 75 75 75 75 75 75 75 74.9624 0 0 74.9624 75 75 75 75 75 75 75 75 75 75 75 75 75 75 75 75 75 75 75 75 75 75 75 75 75 75 74.9624 0 0 74.9624 75 75 75 75 75 75 75 75 75 75 75 75 75 75 75 75 75 75 75 75 75 75 75 75 75 75 74.9624 0 0 74.9624 75 75 75 75 75 75 75 75 75 75 75 75 75 75 75 75 75 75 75 75 75 75 75 75 75 75 74.9624 0 0 74.9624 75 75 75 75 75 75 75 75 75 75 75 75 75 75 75 75 75 75 75 75 75 75 75 75 75 75 74.9624 0 0 74.9624 75 75 75 75 75 75 75 75 75 75 75 75 75 75 75 75 75 75 75 75 75 75 75 75 75 75 74.9624 0 0 74.9624 75 75 75 75 75 75 75 75 75 75 75 75 75 75 75 75 75 75 75 75 75 75 75 75 75 75 74.9624 0 0 74.9624 75 75 75 75 75 75 75 75 75 75 75 75 75 75 75 75 75 75 75 75 75 75 75 75 75 75 74.9624 0 0 74.9624 75 75 75 75 75 75 75 75 75 75 75 75 75 75 75 75 75 75 75 75 75 75 75 75 75 75 74.9624 0 0 74.9624 75 75 75 75 75 75 75 75 75 75 75 75 75 75 75 75 75 75 75 75 75 75 75 75 75 75 74.9624 0 0 74.9624 75 75 75 75 75 75 75 75 75 75 75 75 75 75 75 75 75 75 75 75 75 75 75 75 75 75 74.9624 0 0 74.9624 75 75 75 75 75 75 75 75 75 75 75 75 75 75 75 75 75 75 75 75 75 75 75 75 75 75 74.9624 0 0 74.9624 75 75 75 75 75 75 75 75 75 75 75 75 75 75 75 75 75 75 75 75 75 75 75 75 75 75 74.9624 0 0 74.9624 75 75 75 75 75 75 75 75 75 75 75 75 75 75 75 75 75 75 75 75 75 75 75 75 75 75 74.9624 0 0 74.9624 75 75 75 75 75 75 75 75 75 75 75 75 75 75 75 75 75 75 75 75 75 75 75 75 75 75 74.9624 0 0 74.9623 74.9999 75 75 75 75 75 75 75 75 75 75 75 75 75 75 75 75 75 75 75 75 75 75 75 75 74.9999 74.9623 0 0 74.9248 74.9623 74.9624 74.9624 74.9624 74.9624 74.9624 74.9624 74.9624 74.9624 74.9624 74.9624 74.9624 74.9624 74.9624 74.9624 74.9624 74.9624 74.9624 74.9624 74.9624 74.9624 74.9624 74.9624 74.9624 74.9624 74.9623 74.9248 0 0 0 0 0 0 0 0 0 0 0 0 0 0 0 0 0 0 0 0 0 0 0 0 0 0 0 0 0 0 0 0 0 0 0 0 0 0 0 0 0 0 0 0 0 0 0 0 0 0 0 0 0 0 0 0 0 0 0 0 0 0 74.9248 74.9624 74.9624 74.9248 0.0747505 74.9248 74.9624 74.9624 74.9624 74.9624 74.9624 74.9624 74.9624 74.9624 74.9624 74.9624 74.9624 74.9624 74.9624 74.9624 74.9624 74.9624 74.9624 74.9624 74.9624 74.9624 74.9624 74.9248 0 0 74.9624 75 75 74.962 -0.31976 74.962 75 75 75 75 75 75 75 75 75 75 75 75 75 75 75 75 75 75 75 75 75 74.9624 0 0 74.9624 75 75 74.9624 0.0748446 74.9624 75 75 75 75 75 75 75 75 75 75 75 75 75 75 75 75 75 75 75 75 75 74.9624 0 0 74.9248 74.962 74.9624 74.9249 0.112719 74.9624 75 75 75 75 75 75 75 75 75 75 75 75 75 75 75 75 75 75 75 75 75 74.9624 0 0 0.0747505 -0.31976 0.0748446 0.112719 74.9249 74.9999 75 75 75 75 75 75 75 75 75 75 75 75 75 75 75 75 75 75 75 75 75 74.9624 0 0 74.9248 74.962 74.9624 74.9624 74.9999 75 75 75 75 75 75 75 75 75 75 75 75 75 75 75 75 75 75 75 75 75 75 74.9624 0 0 74.9624 75 75 75 75 75 75 75 75 75 75 75 75 75 75 75 75 75 75 75 75 75 75 75 75 75 75 74.9624 0 0 74.9624 75 75 75 75 75 75 75 75 75 75 75 75 75 75 75 75 75 75 75 75 75 75 75 75 75 75 74.9624 0 0 74.9624 75 75 75 75 75 75 75 75 75 75 75 75 75 75 75 75 75 75 75 75 75 75 75 75 75 75 74.9624 0 0 74.9624 75 75 75 75 75 75 75 75 75 75 75 75 75 75 75 75 75 75 75 75 75 75 75 75 75 75 74.9624 0 0 74.9624 75 75 75 75 75 75 75 75 75 75 75 75 75 75 75 75 75 75 75 75 75 75 75 75 75 75 74.9624 0 0 74.9624 75 75 75 75 75 75 75 75 75 75 75 75 75 75 75 75 75 75 75 75 75 75 75 75 75 75 74.9624 0 0 74.9624 75 75 75 75 75 75 75 75 75 75 75 75 75 75 75 75 75 75 75 75 75 75 75 75 75 75 74.9624 0 0 74.9624 75 75 75 75 75 75 75 75 75 75 75 75 75 75 75 75 75 75 75 75 75 75 75 75 75 75 74.9624 0 0 74.9624 75 75 75 75 75 75 75 75 75 75 75 75 75 75 75 75 75 75 75 75 75 75 75 75 75 75 74.9624 0 0 74.9624 75 75 75 75 75 75 75 75 75 75 75 75 75 75 75 75 75 75 75 75 75 75 75 75 75 75 74.9624 0 0 74.9624 75 75 75 75 75 75 75 75 75 75 75 75 75 75 75 75 75 75 75 75 75 75 75 75 75 75 74.9624 0 0 74.9624 75 75 75 75 75 75 75 75 75 75 75 75 75 75 75 75 75 75 75 75 75 75 75 75 75 75 74.9624 0 0 74.9624 75 75 75 75 75 75 75 75 75 75 75 75 75 75 75 75 75 75 75 75 75 75 75 75 75 75 74.9624 0 0 74.9624 75 75 75 75 75 75 75 75 75 75 75 75 75 75 75 75 75 75 75 75 75 75 75 75 75 75 74.9624 0 0 74.9624 75 75 75 75 75 75 75 75 75 75 75 75 75 75 75 75 75 75 75 75 75 75 75 75 75 75 74.9624 0 0 74.9624 75 75 75 75 75 75 75 75 75 75 75 75 75 75 75 75 75 75 75 75 75 75 75 75 75 75 74.9624 0 0 74.9624 75 75 75 75 75 75 75 75 75 75 75 75 75 75 75 75 75 75 75 75 75 75 75 75 75 75 74.9624 0 0 74.9624 75 75 75 75 75 75 75 75 75 75 75 75 75 75 75 75 75 75 75 75 75 75 75 75 75 75 74.9624 0 0 74.9624 75 75 75 75 75 75 75 75 75 75 75 75 75 75 75 75 75 75 75 75 75 75 75 75 75 75 74.9624 0 0 74.9624 75 75 75 75 75 75 75 75 75 75 75 75 75 75 75 75 75 75 75 75 75 75 75 75 75 75 74.9624 0 0 74.9624 75 75 75 75 75 75 75 75 75 75 75 75 75 75 75 75 75 75 75 75 75 75 75 75 75 75 74.9624 0 0 74.9248 74.9624 74.9624 74.9624 74.9624 74.9624 74.9624 74.9624 74.9624 74.9624 74.9624 74.9624 74.9624 74.9624 74.9624 74.9624 74.9624 74.9624 74.9624 74.9624 74.9624 74.9624 74.9624 74.9624 74.9624 74.9624 74.9624 74.9248 0 0 0 0 0 0 0 0 0 0 0 0 0 0 0 0 0 0 0 0 0 0 0 0 0 0 0 0 0 0 0 0 0 0 0 0 0 0 0 0 0 0 0 0 0 0 0 0 0 0 0 0 0 0 0 0 0 0 0 0 0 0 74.9248 74.9624 74.9624 74.9244 -0.320033 74.9244 74.9624 74.9624 74.9624 74.9624 74.9624 74.9624 74.9624 74.9624 74.9624 74.9624 74.9624 74.9624 74.9624 74.9624 74.9624 74.9624 74.9624 74.9624 74.9624 74.9624 74.9624 74.9248 0 0 74.9624 75 74.9998 74.5672 -788.746 74.5672 74.9998 75 75 75 75 75 75 75 75 75 75 75 75 75 75 75 75 75 75 75 75 74.9624 0 0 74.9624 74.9998 75 74.962 -0.319939 74.962 75 75 75 75 75 75 75 75 75 75 75 75 75 75 75 75 75 75 75 75 75 74.9624 0 0 74.9244 74.5672 74.962 74.9249 0.112521 74.9624 75 75 75 75 75 75 75 75 75 75 75 75 75 75 75 75 75 75 75 75 75 74.9624 0 0 -0.320033 -788.746 -0.319939 0.112521 74.9249 74.9999 75 75 75 75 75 75 75 75 75 75 75 75 75 75 75 75 75 75 75 75 75 74.9624 0 0 74.9244 74.5672 74.962 74.9624 74.9999 75 75 75 75 75 75 75 75 75 75 75 75 75 75 75 75 75 75 75 75 75 75 74.9624 0 0 74.9624 74.9998 75 75 75 75 75 75 75 75 75 75 75 75 75 75 75 75 75 75 75 75 75 75 75 75 75 74.9624 0 0 74.9624 75 75 75 75 75 75 75 75 75 75 75 75 75 75 75 75 75 75 75 75 75 75 75 75 75 75 74.9624 0 0 74.9624 75 75 75 75 75 75 75 75 75 75 75 75 75 75 75 75 75 75 75 75 75 75 75 75 75 75 74.9624 0 0 74.9624 75 75 75 75 75 75 75 75 75 75 75 75 75 75 75 75 75 75 75 75 75 75 75 75 75 75 74.9624 0 0 74.9624 75 75 75 75 75 75 75 75 75 75 75 75 75 75 75 75 75 75 75 75 75 75 75 75 75 75 74.9624 0 0 74.9624 75 75 75 75 75 75 75 75 75 75 75 75 75 75 75 75 75 75 75 75 75 75 75 75 75 75 74.9624 0 0 74.9624 75 75 75 75 75 75 75 75 75 75 75 75 75 75 75 75 75 75 75 75 75 75 75 75 75 75 74.9624 0 0 74.9624 75 75 75 75 75 75 75 75 75 75 75 75 75 75 75 75 75 75 75 75 75 75 75 75 75 75 74.9624 0 0 74.9624 75 75 75 75 75 75 75 75 75 75 75 75 75 75 75 75 75 75 75 75 75 75 75 75 75 75 74.9624 0 0 74.9624 75 75 75 75 75 75 75 75 75 75 75 75 75 75 75 75 75 75 75 75 75 75 75 75 75 75 74.9624 0 0 74.9624 75 75 75 75 75 75 75 75 75 75 75 75 75 75 75 75 75 75 75 75 75 75 75 75 75 75 74.9624 0 0 74.9624 75 75 75 75 75 75 75 75 75 75 75 75 75 75 75 75 75 75 75 75 75 75 75 75 75 75 74.9624 0 0 74.9624 75 75 75 75 75 75 75 75 75 75 75 75 75 75 75 75 75 75 75 75 75 75 75 75 75 75 74.9624 0 0 74.9624 75 75 75 75 75 75 75 75 75 75 75 75 75 75 75 75 75 75 75 75 75 75 75 75 75 75 74.9624 0 0 74.9624 75 75 75 75 75 75 75 75 75 75 75 75 75 75 75 75 75 75 75 75 75 75 75 75 75 75 74.9624 0 0 74.9624 75 75 75 75 75 75 75 75 75 75 75 75 75 75 75 75 75 75 75 75 75 75 75 75 75 75 74.9624 0 0 74.9624 75 75 75 75 75 75 75 75 75 75 75 75 75 75 75 75 75 75 75 75 75 75 75 75 75 75 74.9624 0 0 74.9624 75 75 75 75 75 75 75 75 75 75 75 75 75 75 75 75 75 75 75 75 75 75 75 75 75 75 74.9624 0 0 74.9624 75 75 75 75 75 75 75 75 75 75 75 75 75 75 75 75 75 75 75 75 75 75 75 75 75 75 74.9624 0 0 74.9624 75 75 75 75 75 75 75 75 75 75 75 75 75 75 75 75 75 75 75 75 75 75 75 75 75 75 74.9624 0 0 74.9624 75 75 75 75 75 75 75 75 75 75 75 75 75 75 75 75 75 75 75 75 75 75 75 75 75 75 74.9624 0 0 74.9248 74.9624 74.9624 74.9624 74.9624 74.9624 74.9624 74.9624 74.9624 74.9624 74.9624 74.9624 74.9624 74.9624 74.9624 74.9624 74.9624 74.9624 74.9624 74.9624 74.9624 74.9624 74.9624 74.9624 74.9624 74.9624 74.9624 74.9248 0 0 0 0 0 0 0 0 0 0 0 0 0 0 0 0 0 0 0 0 0 0 0 0 0 0 0 0 0 0 0 0 0 0 0 0 0 0 0 0 0 0 0 0 0 0 0 0 0 0 0 0 0 0 0 0 0 0 0 0 0 0 74.9248 74.9624 74.9624 74.9244 -0.320033 74.9244 74.9624 74.9624 74.9624 74.9624 74.9624 74.9624 74.9624 74.9624 74.9624 74.9624 74.9624 74.9624 74.9624 74.9624 74.9624 74.9624 74.9624 74.9624 74.9624 74.9624 74.9624 74.9248 0 0 74.9624 75 74.9998 74.5672 -788.746 74.5672 74.9998 75 75 75 75 75 75 75 75 75 75 75 75 75 75 75 75 75 75 75 75 74.9624 0 0 74.9624 74.9998 75 74.962 -0.319939 74.962 75 75 75 75 75 75 75 75 75 75 75 75 75 75 75 75 75 75 75 75 75 74.9624 0 0 74.9244 74.5672 74.962 74.9249 0.112521 74.9624 75 75 75 75 75 75 75 75 75 75 75 75 75 75 75 75 75 75 75 75 75 74.9624 0 0 -0.320033 -788.746 -0.319939 0.112521 74.9249 74.9999 75 75 75 75 75 75 75 75 75 75 75 75 75 75 75 75 75 75 75 75 75 74.9624 0 0 74.9244 74.5672 74.962 74.9624 74.9999 75 75 75 75 75 75 75 75 75 75 75 75 75 75 75 75 75 75 75 75 75 75 74.9624 0 0 74.9624 74.9998 75 75 75 75 75 75 75 75 75 75 75 75 75 75 75 75 75 75 75 75 75 75 75 75 75 74.9624 0 0 74.9624 75 75 75 75 75 75 75 75 75 75 75 75 75 75 75 75 75 75 75 75 75 75 75 75 75 75 74.9624 0 0 74.9624 75 75 75 75 75 75 75 75 75 75 75 75 75 75 75 75 75 75 75 75 75 75 75 75 75 75 74.9624 0 0 74.9624 75 75 75 75 75 75 75 75 75 75 75 75 75 75 75 75 75 75 75 75 75 75 75 75 75 75 74.9624 0 0 74.9624 75 75 75 75 75 75 75 75 75 75 75 75 75 75 75 75 75 75 75 75 75 75 75 75 75 75 74.9624 0 0 74.9624 75 75 75 75 75 75 75 75 75 75 75 75 75 75 75 75 75 75 75 75 75 75 75 75 75 75 74.9624 0 0 74.9624 75 75 75 75 75 75 75 75 75 75 75 75 75 75 75 75 75 75 75 75 75 75 75 75 75 75 74.9624 0 0 74.9624 75 75 75 75 75 75 75 75 75 75 75 75 75 75 75 75 75 75 75 75 75 75 75 75 75 75 74.9624 0 0 74.9624 75 75 75 75 75 75 75 75 75 75 75 75 75 75 75 75 75 75 75 75 75 75 75 75 75 75 74.9624 0 0 74.9624 75 75 75 75 75 75 75 75 75 75 75 75 75 75 75 75 75 75 75 75 75 75 75 75 75 75 74.9624 0 0 74.9624 75 75 75 75 75 75 75 75 75 75 75 75 75 75 75 75 75 75 75 75 75 75 75 75 75 75 74.9624 0 0 74.9624 75 75 75 75 75 75 75 75 75 75 75 75 75 75 75 75 75 75 75 75 75 75 75 75 75 75 74.9624 0 0 74.9624 75 75 75 75 75 75 75 75 75 75 75 75 75 75 75 75 75 75 75 75 75 75 75 75 75 75 74.9624 0 0 74.9624 75 75 75 75 75 75 75 75 75 75 75 75 75 75 75 75 75 75 75 75 75 75 75 75 75 75 74.9624 0 0 74.9624 75 75 75 75 75 75 75 75 75 75 75 75 75 75 75 75 75 75 75 75 75 75 75 75 75 75 74.9624 0 0 74.9624 75 75 75 75 75 75 75 75 75 75 75 75 75 75 75 75 75 75 75 75 75 75 75 75 75 75 74.9624 0 0 74.9624 75 75 75 75 75 75 75 75 75 75 75 75 75 75 75 75 75 75 75 75 75 75 75 75 75 75 74.9624 0 0 74.9624 75 75 75 75 75 75 75 75 75 75 75 75 75 75 75 75 75 75 75 75 75 75 75 75 75 75 74.9624 0 0 74.9624 75 75 75 75 75 75 75 75 75 75 75 75 75 75 75 75 75 75 75 75 75 75 75 75 75 75 74.9624 0 0 74.9624 75 75 75 75 75 75 75 75 75 75 75 75 75 75 75 75 75 75 75 75 75 75 75 75 75 75 74.9624 0 0 74.9624 75 75 75 75 75 75 75 75 75 75 75 75 75 75 75 75 75 75 75 75 75 75 75 75 75 75 74.9624 0 0 74.9248 74.9624 74.9624 74.9624 74.9624 74.9624 74.9624 74.9624 74.9624 74.9624 74.9624 74.9624 74.9624 74.9624 74.9624 74.9624 74.9624 74.9624 74.9624 74.9624 74.9624 74.9624 74.9624 74.9624 74.9624 74.9624 74.9624 74.9248 0 0 0 0 0 0 0 0 0 0 0 0 0 0 0 0 0 0 0 0 0 0 0 0 0 0 0 0 0 0 0 0 0 0 0 0 0 0 0 0 0 0 0 0 0 0 0 0 0 0 0 0 0 0 0 0 0 0 0 0 0 0 74.9248 74.9624 74.9624 74.9248 0.0747505 74.9248 74.9624 74.9624 74.9624 74.9624 74.9624 74.9624 74.9624 74.9624 74.9624 74.9624 74.9624 74.9624 74.9624 74.9624 74.9624 74.9624 74.9624 74.9624 74.9624 74.9624 74.9624 74.9248 0 0 74.9624 75 75 74.962 -0.319761 74.962 75 75 75 75 75 75 75 75 75 75 75 75 75 75 75 75 75 75 75 75 75 74.9624 0 0 74.9624 75 75 74.9624 0.0748446 74.9624 75 75 75 75 75 75 75 75 75 75 75 75 75 75 75 75 75 75 75 75 75 74.9624 0 0 74.9248 74.962 74.9624 74.9249 0.112719 74.9624 75 75 75 75 75 75 75 75 75 75 75 75 75 75 75 75 75 75 75 75 75 74.9624 0 0 0.0747505 -0.319761 0.0748446 0.112719 74.9249 74.9999 75 75 75 75 75 75 75 75 75 75 75 75 75 75 75 75 75 75 75 75 75 74.9624 0 0 74.9248 74.962 74.9624 74.9624 74.9999 75 75 75 75 75 75 75 75 75 75 75 75 75 75 75 75 75 75 75 75 75 75 74.9624 0 0 74.9624 75 75 75 75 75 75 75 75 75 75 75 75 75 75 75 75 75 75 75 75 75 75 75 75 75 75 74.9624 0 0 74.9624 75 75 75 75 75 75 75 75 75 75 75 75 75 75 75 75 75 75 75 75 75 75 75 75 75 75 74.9624 0 0 74.9624 75 75 75 75 75 75 75 75 75 75 75 75 75 75 75 75 75 75 75 75 75 75 75 75 75 75 74.9624 0 0 74.9624 75 75 75 75 75 75 75 75 75 75 75 75 75 75 75 75 75 75 75 75 75 75 75 75 75 75 74.9624 0 0 74.9624 75 75 75 75 75 75 75 75 75 75 75 75 75 75 75 75 75 75 75 75 75 75 75 75 75 75 74.9624 0 0 74.9624 75 75 75 75 75 75 75 75 75 75 75 75 75 75 75 75 75 75 75 75 75 75 75 75 75 75 74.9624 0 0 74.9624 75 75 75 75 75 75 75 75 75 75 75 75 75 75 75 75 75 75 75 75 75 75 75 75 75 75 74.9624 0 0 74.9624 75 75 75 75 75 75 75 75 75 75 75 75 75 75 75 75 75 75 75 75 75 75 75 75 75 75 74.9624 0 0 74.9624 75 75 75 75 75 75 75 75 75 75 75 75 75 75 75 75 75 75 75 75 75 75 75 75 75 75 74.9624 0 0 74.9624 75 75 75 75 75 75 75 75 75 75 75 75 75 75 75 75 75 75 75 75 75 75 75 75 75 75 74.9624 0 0 74.9624 75 75 75 75 75 75 75 75 75 75 75 75 75 75 75 75 75 75 75 75 75 75 75 75 75 75 74.9624 0 0 74.9624 75 75 75 75 75 75 75 75 75 75 75 75 75 75 75 75 75 75 75 75 75 75 75 75 75 75 74.9624 0 0 74.9624 75 75 75 75 75 75 75 75 75 75 75 75 75 75 75 75 75 75 75 75 75 75 75 75 75 75 74.9624 0 0 74.9624 75 75 75 75 75 75 75 75 75 75 75 75 75 75 75 75 75 75 75 75 75 75 75 75 75 75 74.9624 0 0 74.9624 75 75 75 75 75 75 75 75 75 75 75 75 75 75 75 75 75 75 75 75 75 75 75 75 75 75 74.9624 0 0 74.9624 75 75 75 75 75 75 75 75 75 75 75 75 75 75 75 75 75 75 75 75 75 75 75 75 75 75 74.9624 0 0 74.9624 75 75 75 75 75 75 75 75 75 75 75 75 75 75 75 75 75 75 75 75 75 75 75 75 75 75 74.9624 0 0 74.9624 75 75 75 75 75 75 75 75 75 75 75 75 75 75 75 75 75 75 75 75 75 75 75 75 75 75 74.9624 0 0 74.9624 75 75 75 75 75 75 75 75 75 75 75 75 75 75 75 75 75 75 75 75 75 75 75 75 75 75 74.9624 0 0 74.9624 75 75 75 75 75 75 75 75 75 75 75 75 75 75 75 75 75 75 75 75 75 75 75 75 75 75 74.9624 0 0 74.9624 75 75 75 75 75 75 75 75 75 75 75 75 75 75 75 75 75 75 75 75 75 75 75 75 75 75 74.9624 0 0 74.9248 74.9624 74.9624 74.9624 74.9624 74.9624 74.9624 74.9624 74.9624 74.9624 74.9624 74.9624 74.9624 74.9624 74.9624 74.9624 74.9624 74.9624 74.9624 74.9624 74.9624 74.9624 74.9624 74.9624 74.9624 74.9624 74.9624 74.9248 0 0 0 0 0 0 0 0 0 0 0 0 0 0 0 0 0 0 0 0 0 0 0 0 0 0 0 0 0 0 0 0 0 0 0 0 0 0 0 0 0 0 0 0 0 0 0 0 0 0 0 0 0 0 0 0 0 0 0 0 0 0 74.9248 74.9624 74.9624 74.9248 0.0751455 74.9248 74.9624 74.9624 74.9624 74.9624 74.9624 74.9624 74.9624 74.9624 74.9624 74.9624 74.9624 74.9624 74.9624 74.9624 74.9624 74.9624 74.9624 74.9624 74.9624 74.9624 74.9624 74.9248 0 0 74.9624 75 75 74.9624 0.0748259 74.9624 75 75 75 75 75 75 75 75 75 75 75 75 75 75 75 75 75 75 75 75 75 74.9624 0 0 74.9624 75 75 74.9624 0.0752397 74.9624 75 75 75 75 75 75 75 75 75 75 75 75 75 75 75 75 75 75 75 75 75 74.9624 0 0 74.9248 74.9624 74.9624 74.9249 0.112719 74.9624 75 75 75 75 75 75 75 75 75 75 75 75 75 75 75 75 75 75 75 75 75 74.9624 0 0 0.0751455 0.0748259 0.0752397 0.112719 74.9249 74.9999 75 75 75 75 75 75 75 75 75 75 75 75 75 75 75 75 75 75 75 75 75 74.9624 0 0 74.9248 74.9624 74.9624 74.9624 74.9999 75 75 75 75 75 75 75 75 75 75 75 75 75 75 75 75 75 75 75 75 75 75 74.9624 0 0 74.9624 75 75 75 75 75 75 75 75 75 75 75 75 75 75 75 75 75 75 75 75 75 75 75 75 75 75 74.9624 0 0 74.9624 75 75 75 75 75 75 75 75 75 75 75 75 75 75 75 75 75 75 75 75 75 75 75 75 75 75 74.9624 0 0 74.9624 75 75 75 75 75 75 75 75 75 75 75 75 75 75 75 75 75 75 75 75 75 75 75 75 75 75 74.9624 0 0 74.9624 75 75 75 75 75 75 75 75 75 75 75 75 75 75 75 75 75 75 75 75 75 75 75 75 75 75 74.9624 0 0 74.9624 75 75 75 75 75 75 75 75 75 75 75 75 75 75 75 75 75 75 75 75 75 75 75 75 75 75 74.9624 0 0 74.9624 75 75 75 75 75 75 75 75 75 75 75 75 75 75 75 75 75 75 75 75 75 75 75 75 75 75 74.9624 0 0 74.9624 75 75 75 75 75 75 75 75 75 75 75 75 75 75 75 75 75 75 75 75 75 75 75 75 75 75 74.9624 0 0 74.9624 75 75 75 75 75 75 75 75 75 75 75 75 75 75 75 75 75 75 75 75 75 75 75 75 75 75 74.9624 0 0 74.9624 75 75 75 75 75 75 75 75 75 75 75 75 75 75 75 75 75 75 75 75 75 75 75 75 75 75 74.9624 0 0 74.9624 75 75 75 75 75 75 75 75 75 75 75 75 75 75 75 75 75 75 75 75 75 75 75 75 75 75 74.9624 0 0 74.9624 75 75 75 75 75 75 75 75 75 75 75 75 75 75 75 75 75 75 75 75 75 75 75 75 75 75 74.9624 0 0 74.9624 75 75 75 75 75 75 75 75 75 75 75 75 75 75 75 75 75 75 75 75 75 75 75 75 75 75 74.9624 0 0 74.9624 75 75 75 75 75 75 75 75 75 75 75 75 75 75 75 75 75 75 75 75 75 75 75 75 75 75 74.9624 0 0 74.9624 75 75 75 75 75 75 75 75 75 75 75 75 75 75 75 75 75 75 75 75 75 75 75 75 75 75 74.9624 0 0 74.9624 75 75 75 75 75 75 75 75 75 75 75 75 75 75 75 75 75 75 75 75 75 75 75 75 75 75 74.9624 0 0 74.9624 75 75 75 75 75 75 75 75 75 75 75 75 75 75 75 75 75 75 75 75 75 75 75 75 75 75 74.9624 0 0 74.9624 75 75 75 75 75 75 75 75 75 75 75 75 75 75 75 75 75 75 75 75 75 75 75 75 75 75 74.9624 0 0 74.9624 75 75 75 75 75 75 75 75 75 75 75 75 75 75 75 75 75 75 75 75 75 75 75 75 75 75 74.9624 0 0 74.9624 75 75 75 75 75 75 75 75 75 75 75 75 75 75 75 75 75 75 75 75 75 75 75 75 75 75 74.9624 0 0 74.9624 75 75 75 75 75 75 75 75 75 75 75 75 75 75 75 75 75 75 75 75 75 75 75 75 75 75 74.9624 0 0 74.9624 75 75 75 75 75 75 75 75 75 75 75 75 75 75 75 75 75 75 75 75 75 75 75 75 75 75 74.9624 0 0 74.9248 74.9624 74.9624 74.9624 74.9624 74.9624 74.9624 74.9624 74.9624 74.9624 74.9624 74.9624 74.9624 74.9624 74.9624 74.9624 74.9624 74.9624 74.9624 74.9624 74.9624 74.9624 74.9624 74.9624 74.9624 74.9624 74.9624 74.9248 0 0 0 0 0 0 0 0 0 0 0 0 0 0 0 0 0 0 0 0 0 0 0 0 0 0 0 0 0 0 0 0 0 0 0 0 0 0 0 0 0 0 0 0 0 0 0 0 0 0 0 0 0 0 0 0 0 0 0 0 0 0 74.9248 74.9624 74.9624 74.9248 0.0747505 74.9248 74.9624 74.9624 74.9624 74.9624 74.9624 74.9624 74.9624 74.9624 74.9624 74.9624 74.9624 74.9624 74.9624 74.9624 74.9624 74.9624 74.9624 74.9624 74.9624 74.9624 74.9624 74.9248 0 0 74.9624 75 75 74.962 -0.319761 74.962 75 75 75 75 75 75 75 75 75 75 75 75 75 75 75 75 75 75 75 75 75 74.9624 0 0 74.9624 75 75 74.9624 0.0748446 74.9624 75 75 75 75 75 75 75 75 75 75 75 75 75 75 75 75 75 75 75 75 75 74.9624 0 0 74.9248 74.962 74.9624 74.9249 0.112719 74.9624 75 75 75 75 75 75 75 75 75 75 75 75 75 75 75 75 75 75 75 75 75 74.9624 0 0 0.0747505 -0.319761 0.0748446 0.112719 74.9249 74.9999 75 75 75 75 75 75 75 75 75 75 75 75 75 75 75 75 75 75 75 75 75 74.9624 0 0 74.9248 74.962 74.9624 74.9624 74.9999 75 75 75 75 75 75 75 75 75 75 75 75 75 75 75 75 75 75 75 75 75 75 74.9624 0 0 74.9624 75 75 75 75 75 75 75 75 75 75 75 75 75 75 75 75 75 75 75 75 75 75 75 75 75 75 74.9624 0 0 74.9624 75 75 75 75 75 75 75 75 75 75 75 75 75 75 75 75 75 75 75 75 75 75 75 75 75 75 74.9624 0 0 74.9624 75 75 75 75 75 75 75 75 75 75 75 75 75 75 75 75 75 75 75 75 75 75 75 75 75 75 74.9624 0 0 74.9624 75 75 75 75 75 75 75 75 75 75 75 75 75 75 75 75 75 75 75 75 75 75 75 75 75 75 74.9624 0 0 74.9624 75 75 75 75 75 75 75 75 75 75 75 75 75 75 75 75 75 75 75 75 75 75 75 75 75 75 74.9624 0 0 74.9624 75 75 75 75 75 75 75 75 75 75 75 75 75 75 75 75 75 75 75 75 75 75 75 75 75 75 74.9624 0 0 74.9624 75 75 75 75 75 75 75 75 75 75 75 75 75 75 75 75 75 75 75 75 75 75 75 75 75 75 74.9624 0 0 74.9624 75 75 75 75 75 75 75 75 75 75 75 75 75 75 75 75 75 75 75 75 75 75 75 75 75 75 74.9624 0 0 74.9624 75 75 75 75 75 75 75 75 75 75 75 75 75 75 75 75 75 75 75 75 75 75 75 75 75 75 74.9624 0 0 74.9624 75 75 75 75 75 75 75 75 75 75 75 75 75 75 75 75 75 75 75 75 75 75 75 75 75 75 74.9624 0 0 74.9624 75 75 7