<?xml version="1.0"?>
<VTKFile type="ImageData" version="0.1" byte_order="LittleEndian">
  <ImageData WholeExtent="0 29 0 29 0 29" Origin="0 0 0" Spacing="1 1 1">
    <Piece Extent="0 29 0 29 0 29">
      <PointData Scalars="temperature">
        <DataArray type="Float64" Name="temperature" format="ascii">
97.4875 95.2655 94.157 93.5671 93.2403 93.0541 92.9458 92.8819 92.8438 92.8208 92.8069 92.7983 92.793 92.7895 92.7872 92.7853 92.7836 92.7815 92.7785 92.774 92.7667 92.7547 92.7346 92.7006 92.6419 92.5382 92.3473 91.973 91.1571 89.0669 98.9163 97.2083 96.2071 95.6442 95.3254 95.1421 95.035 94.9716 94.9337 94.9109 94.897 94.8884 94.8831 94.8797 94.8773 94.8755 94.8737 94.8716 94.8687 94.8641 94.8568 94.8448 94.8247 94.7907 94.7321 94.6283 94.4374 94.0631 93.2472 91.1571 99.2659 97.8504 96.9561 96.4327 96.1294 95.9525 95.8482 95.7862 95.7489 95.7264 95.7126 95.7042 95.6989 95.6955 95.6932 95.6914 95.6896 95.6875 95.6846 95.68 95.6727 95.6607 95.6406 95.6066 95.548 95.4442 95.2533 94.879 94.0631 91.973 99.3741 98.0945 97.2688 96.7777 96.4896 96.3198 96.219 96.1587 96.1223 96.1002 96.0867 96.0783 96.0731 96.0698 96.0675 96.0657 96.0639 96.0618 96.0589 96.0543 96.047 96.035 96.0149 95.9809 95.9223 95.8185 95.6276 95.2533 94.4374 92.3473 99.4152 98.199 97.4126 96.9436 96.6673 96.5038 96.4062 96.3476 96.3121 96.2905 96.2772 96.269 96.2639 96.2606 96.2583 96.2565 96.2548 96.2527 96.2497 96.2452 96.2379 96.2259 96.2058 96.1718 96.1131 96.0094 95.8185 95.4442 94.6283 92.5382 99.4332 98.2479 97.4834 97.0283 96.7602 96.6014 96.5066 96.4494 96.4148 96.3936 96.3807 96.3726 96.3676 96.3643 96.3621 96.3603 96.3585 96.3565 96.3535 96.349 96.3417 96.3297 96.3096 96.2756 96.2169 96.1131 95.9223 95.548 94.7321 92.6419 99.4419 98.2723 97.5199 97.0732 96.8106 96.6552 96.5624 96.5064 96.4725 96.4517 96.439 96.4311 96.4261 96.4229 96.4207 96.4189 96.4172 96.4151 96.4122 96.4076 96.4003 96.3883 96.3682 96.3342 96.2756 96.1718 95.9809 95.6066 94.7907 92.7006 99.4464 98.2851 97.5394 97.0977 96.8386 96.6855 96.5941 96.539 96.5056 96.4852 96.4727 96.4649 96.46 96.4568 96.4546 96.4529 96.4512 96.4491 96.4462 96.4416 96.4343 96.4223 96.4022 96.3682 96.3096 96.2058 96.0149 95.6406 94.8247 92.7346 99.4488 98.292 97.5501 97.1114 96.8544 96.7028 96.6124 96.558 96.525 96.5049 96.4925 96.4848 96.48 96.4769 96.4747 96.4729 96.4712 96.4692 96.4662 96.4617 96.4544 96.4424 96.4223 96.3883 96.3297 96.2259 96.035 95.6607 94.8448 92.7547 99.4501 98.2958 97.5561 97.1191 96.8635 96.7128 96.6231 96.5692 96.5365 96.5166 96.5043 96.4967 96.4919 96.4888 96.4866 96.4849 96.4832 96.4812 96.4782 96.4737 96.4664 96.4544 96.4343 96.4003 96.3417 96.2379 96.047 95.6727 94.8568 92.7667 99.4508 98.2979 97.5595 97.1236 96.8688 96.7188 96.6295 96.5759 96.5434 96.5236 96.5114 96.5039 96.4992 96.4961 96.4939 96.4922 96.4905 96.4885 96.4855 96.481 96.4737 96.4617 96.4416 96.4076 96.349 96.2452 96.0543 95.68 94.8641 92.774 99.4512 98.2992 97.5615 97.1262 96.8719 96.7223 96.6333 96.5799 96.5476 96.5279 96.5158 96.5083 96.5036 96.5006 96.4984 96.4967 96.495 96.493 96.4901 96.4855 96.4782 96.4662 96.4462 96.4122 96.3535 96.2497 96.0589 95.6846 94.8687 92.7785 99.4515 98.2999 97.5627 97.1278 96.8739 96.7245 96.6357 96.5825 96.5503 96.5307 96.5186 96.5112 96.5065 96.5034 96.5013 96.4996 96.4979 96.4959 96.493 96.4885 96.4812 96.4692 96.4491 96.4151 96.3565 96.2527 96.0618 95.6875 94.8716 92.7815 99.4517 98.3004 97.5635 97.1289 96.8752 96.726 96.6374 96.5842 96.5521 96.5326 96.5206 96.5131 96.5085 96.5055 96.5033 96.5017 96.5 96.4979 96.495 96.4905 96.4832 96.4712 96.4512 96.4172 96.3585 96.2548 96.0639 95.6896 94.8737 92.7836 99.4518 98.3008 97.5641 97.1297 96.8762 96.7271 96.6387 96.5856 96.5536 96.5341 96.5221 96.5147 96.5101 96.5071 96.505 96.5033 96.5017 96.4996 96.4967 96.4922 96.4849 96.4729 96.4529 96.4189 96.3603 96.2565 96.0657 95.6914 94.8755 92.7854 99.4519 98.3012 97.5647 97.1305 96.8772 96.7283 96.6399 96.587 96.555 96.5356 96.5237 96.5164 96.5117 96.5088 96.5067 96.505 96.5033 96.5013 96.4984 96.4939 96.4866 96.4747 96.4546 96.4207 96.3621 96.2583 96.0675 95.6932 94.8773 92.7872 99.4521 98.3016 97.5655 97.1316 96.8784 96.7297 96.6415 96.5887 96.5569 96.5375 96.5257 96.5184 96.5138 96.5108 96.5088 96.5071 96.5055 96.5034 96.5006 96.4961 96.4888 96.4769 96.4569 96.4229 96.3643 96.2606 96.0698 95.6955 94.8797 92.7896 99.4523 98.3023 97.5666 97.133 96.8802 96.7318 96.6439 96.5912 96.5595 96.5403 96.5285 96.5213 96.5167 96.5138 96.5117 96.5101 96.5085 96.5065 96.5036 96.4992 96.4919 96.48 96.46 96.4261 96.3676 96.2639 96.0732 95.6989 94.8831 92.793 99.4527 98.3034 97.5684 97.1354 96.8831 96.7352 96.6475 96.5952 96.5637 96.5446 96.5329 96.5257 96.5213 96.5184 96.5164 96.5147 96.5131 96.5112 96.5083 96.5039 96.4967 96.4848 96.4649 96.4311 96.3726 96.2691 96.0784 95.7042 94.8885 92.7983 99.4533 98.3052 97.5713 97.1393 96.8879 96.7406 96.6535 96.6016 96.5703 96.5515 96.54 96.5329 96.5285 96.5257 96.5237 96.5221 96.5206 96.5186 96.5158 96.5114 96.5043 96.4925 96.4727 96.439 96.3807 96.2773 96.0867 95.7127 94.897 92.8069 99.4543 98.3083 97.5763 97.1459 96.8958 96.7496 96.6634 96.612 96.5813 96.5627 96.5515 96.5446 96.5403 96.5375 96.5356 96.5341 96.5326 96.5307 96.5279 96.5236 96.5166 96.5049 96.4853 96.4518 96.3937 96.2905 96.1003 95.7265 94.911 92.8209 99.4561 98.3136 97.5847 97.1571 96.9093 96.7648 96.6798 96.6294 96.5994 96.5813 96.5703 96.5637 96.5595 96.5569 96.555 96.5536 96.5521 96.5503 96.5476 96.5434 96.5365 96.5251 96.5057 96.4725 96.4149 96.3122 96.1224 95.7491 94.9339 92.844 99.4593 98.3229 97.5994 97.1764 96.9322 96.7904 96.7075 96.6585 96.6294 96.612 96.6016 96.5952 96.5912 96.5887 96.587 96.5856 96.5842 96.5825 96.5799 96.5759 96.5692 96.5581 96.5391 96.5065 96.4496 96.3477 96.1589 95.7865 94.972 92.8823 99.4649 98.3392 97.6252 97.2099 96.9716 96.8342 96.7543 96.7075 96.6798 96.6634 96.6535 96.6475 96.6439 96.6415 96.6399 96.6387 96.6374 96.6357 96.6333 96.6295 96.6232 96.6124 96.5941 96.5625 96.5068 96.4065 96.2194 95.8488 95.0356 92.9465 99.475 98.3685 97.671 97.2688 97.0401 96.9095 96.8342 96.7904 96.7648 96.7496 96.7406 96.7352 96.7318 96.7297 96.7283 96.7271 96.726 96.7245 96.7223 96.7188 96.7129 96.7028 96.6856 96.6554 96.6017 96.5042 96.3205 95.9534 95.1433 93.0554 99.4935 98.4221 97.7538 97.3735 97.1603 97.0401 96.9716 96.9322 96.9093 96.8958 96.8879 96.8831 96.8802 96.8784 96.8772 96.8762 96.8752 96.8739 96.872 96.8688 96.8635 96.8545 96.8387 96.8108 96.7606 96.668 96.4907 96.1311 95.3277 93.2429 99.5282 98.5223 97.906 97.5625 97.3735 97.2688 97.2099 97.1764 97.1571 97.1459 97.1393 97.1354 97.133 97.1316 97.1305 97.1297 97.1289 97.1279 97.1262 97.1236 97.1192 97.1115 97.0979 97.0735 97.0288 96.9445 96.7794 96.4355 95.6486 93.5726 99.5937 98.7133 98.1896 97.906 97.7538 97.671 97.6252 97.5994 97.5847 97.5763 97.5713 97.5684 97.5666 97.5655 97.5647 97.5641 97.5635 97.5627 97.5615 97.5595 97.5561 97.5502 97.5396 97.5202 97.4839 97.4138 97.2711 96.9608 96.2155 94.1689 99.714 99.0772 98.7133 98.5223 98.4221 98.3685 98.3392 98.3229 98.3136 98.3083 98.3052 98.3034 98.3023 98.3016 98.3012 98.3008 98.3004 98.2999 98.2992 98.2979 98.2958 98.292 98.2852 98.2726 98.2484 98.2001 98.0971 97.8568 97.2228 95.2918 99.9067 99.714 99.5937 99.5282 99.4935 99.475 99.4649 99.4593 99.4561 99.4543 99.4533 99.4527 99.4523 99.4521 99.4519 99.4518 99.4517 99.4515 99.4512 99.4508 99.4501 99.4488 99.4464 99.442 99.4334 99.4157 99.3757 99.2709 98.933 97.5353 94.9593 88.5131 85.3467 83.6615 82.7221 82.1832 81.8682 81.6814 81.5696 81.502 81.4608 81.4355 81.4197 81.4096 81.4026 81.3972 81.3919 81.3857 81.377 81.3637 81.3422 81.3071 81.2488 81.1507 80.9835 80.6936 80.1792 79.2399 77.4625 73.9793 97.1532 91.6626 88.7292 87.1094 86.1913 85.6603 85.3485 85.1633 85.0521 84.9848 84.9438 84.9186 84.9029 84.8928 84.8858 84.8804 84.8752 84.869 84.8602 84.8469 84.8254 84.7903 84.732 84.634 84.4668 84.1768 83.6624 82.7231 80.9458 77.4625 97.8399 93.0001 90.3277 88.8111 87.935 87.422 87.1183 86.9368 86.8275 86.7611 86.7206 86.6957 86.6801 86.67 86.6631 86.6577 86.6525 86.6463 86.6376 86.6242 86.6028 86.5677 86.5093 86.4113 86.2441 85.9541 85.4397 84.5004 82.7231 79.2399 98.0923 93.5898 91.0967 89.6679 88.834 88.3412 88.0474 87.8708 87.764 87.699 87.6591 87.6345 87.6191 87.6092 87.6023 87.5969 87.5918 87.5856 87.5769 87.5635 87.5421 87.507 87.4487 87.3506 87.1834 86.8934 86.3791 85.4397 83.6624 80.1792 98.1985 93.8642 91.4783 90.1109 89.3104 88.8354 88.551 88.3793 88.2752 88.2116 88.1725 88.1483 88.1332 88.1234 88.1166 88.1112 88.1061 88.0999 88.0912 88.0779 88.0564 88.0213 87.963 87.865 87.6978 87.4078 86.8934 85.9541 84.1768 80.6936 98.2478 93.9987 91.674 90.3458 89.5689 89.1076 88.831 88.6637 88.562 88.4998 88.4615 88.4377 88.4228 88.4131 88.4064 88.4012 88.396 88.3899 88.3812 88.3678 88.3464 88.3113 88.253 88.1549 87.9877 87.6978 87.1834 86.2441 84.4668 80.9835 98.2723 94.0675 91.7773 90.4732 89.712 89.2605 88.9897 88.826 88.7263 88.6653 88.6277 88.6044 88.5897 88.5801 88.5735 88.5683 88.5632 88.557 88.5484 88.535 88.5136 88.4785 88.4202 88.3221 88.1549 87.865 87.3506 86.4113 84.634 81.1507 98.2851 94.104 91.8332 90.5436 89.7924 89.3476 89.0811 88.92 88.8219 88.7619 88.7249 88.7019 88.6874 88.678 88.6715 88.6663 88.6612 88.6551 88.6464 88.6331 88.6117 88.5766 88.5183 88.4202 88.253 87.963 87.4487 86.5093 84.732 81.2488 98.292 94.1239 91.8641 90.5832 89.8383 89.3979 89.1343 88.9751 88.8783 88.819 88.7825 88.7598 88.7455 88.7362 88.7297 88.7245 88.7195 88.7134 88.7047 88.6914 88.67 88.6349 88.5766 88.4785 88.3113 88.0213 87.507 86.5677 84.7903 81.3071 98.2958 94.135 91.8815 90.6057 89.8648 89.4272 89.1656 89.0078 88.9118 88.8531 88.8169 88.7945 88.7803 88.7711 88.7647 88.7595 88.7545 88.7484 88.7398 88.7265 88.7051 88.67 88.6117 88.5136 88.3464 88.0564 87.5421 86.6028 84.8254 81.3422 98.2979 94.1413 91.8915 90.6188 89.8803 89.4445 89.1842 89.0273 88.932 88.8737 88.8378 88.8155 88.8015 88.7924 88.786 88.7809 88.7759 88.7698 88.7612 88.7479 88.7265 88.6914 88.6331 88.535 88.3678 88.0779 87.5635 86.6242 84.8469 81.3637 98.2992 94.1449 91.8974 90.6265 89.8895 89.4549 89.1955 89.0392 88.9444 88.8864 88.8507 88.8286 88.8146 88.8056 88.7992 88.7942 88.7892 88.7831 88.7745 88.7612 88.7398 88.7047 88.6464 88.5484 88.3812 88.0912 87.5769 86.6376 84.8602 81.377 98.2999 94.1471 91.901 90.6313 89.8953 89.4614 89.2026 89.0468 88.9522 88.8945 88.859 88.837 88.8231 88.8141 88.8078 88.8027 88.7978 88.7917 88.7831 88.7698 88.7484 88.7134 88.6551 88.557 88.3899 88.0999 87.5856 86.6463 84.869 81.3857 98.3004 94.1486 91.9033 90.6344 89.8991 89.4658 89.2074 89.0519 88.9576 88.9001 88.8647 88.8428 88.829 88.82 88.8138 88.8088 88.8038 88.7978 88.7892 88.7759 88.7545 88.7195 88.6612 88.5632 88.396 88.1061 87.5918 86.6525 84.8752 81.392 98.3008 94.1497 91.9051 90.6369 89.9021 89.4692 89.2112 89.056 88.962 88.9046 88.8693 88.8475 88.8338 88.8249 88.8187 88.8137 88.8088 88.8027 88.7942 88.7809 88.7595 88.7245 88.6663 88.5683 88.4012 88.1112 87.597 86.6577 84.8804 81.3972 98.3012 94.1508 91.9069 90.6393 89.905 89.4727 89.215 89.0601 88.9663 88.9091 88.874 88.8523 88.8386 88.8298 88.8236 88.8187 88.8138 88.8078 88.7992 88.786 88.7647 88.7297 88.6715 88.5735 88.4065 88.1166 87.6023 86.6631 84.8858 81.4026 98.3016 94.1522 91.9091 90.6423 89.9087 89.4769 89.2198 89.0653 88.9717 88.9148 88.8798 88.8583 88.8447 88.8359 88.8298 88.8249 88.82 88.8141 88.8056 88.7924 88.7711 88.7362 88.678 88.5802 88.4132 88.1234 87.6092 86.67 84.8928 81.4096 98.3023 94.1542 91.9124 90.6467 89.9141 89.4831 89.2267 89.0727 88.9796 88.9229 88.8882 88.8668 88.8534 88.8447 88.8386 88.8338 88.829 88.8231 88.8146 88.8015 88.7803 88.7455 88.6875 88.5897 88.4229 88.1332 87.6192 86.6801 84.903 81.4198 98.3034 94.1574 91.9176 90.6537 89.9226 89.493 89.2375 89.0843 88.9918 88.9356 88.9013 88.8801 88.8668 88.8583 88.8523 88.8475 88.8428 88.837 88.8286 88.8155 88.7945 88.7598 88.7019 88.6044 88.4378 88.1484 87.6346 86.6958 84.9187 81.4356 98.3052 94.1628 91.9263 90.6653 89.9367 89.509 89.2551 89.1031 89.0115 88.956 88.9221 88.9013 88.8882 88.8798 88.874 88.8694 88.8647 88.859 88.8507 88.8378 88.8169 88.7825 88.7249 88.6278 88.4616 88.1726 87.6593 86.7208 84.944 81.461 98.3083 94.1719 91.9409 90.6847 89.9601 89.5356 89.2842 89.134 89.0438 88.9892 88.956 88.9356 88.9229 88.9148 88.9091 88.9046 88.9001 88.8945 88.8864 88.8737 88.8531 88.819 88.762 88.6654 88.4999 88.2118 87.6992 86.7614 84.9852 81.5023 98.3136 94.1875 91.9658 90.7176 89.9995 89.5802 89.3326 89.1853 89.097 89.0438 89.0115 88.9918 88.9796 88.9717 88.9663 88.962 88.9576 88.9522 88.9444 88.932 88.9118 88.8783 88.8221 88.7265 88.5622 88.2755 87.7644 86.828 85.0527 81.5702 98.3229 94.2146 92.0089 90.7741 90.0667 89.6554 89.4137 89.2706 89.1853 89.134 89.1031 89.0843 89.0727 89.0653 89.0601 89.056 89.0519 89.0468 89.0393 89.0273 89.0078 88.9752 88.9202 88.8262 88.6641 88.3799 87.8715 86.9377 85.1643 81.6825 98.3392 94.2622 92.0841 90.8719 90.1818 89.7833 89.5507 89.4137 89.3326 89.2842 89.2551 89.2375 89.2267 89.2198 89.215 89.2113 89.2074 89.2026 89.1956 89.1843 89.1657 89.1344 89.0813 88.9901 88.8315 88.5518 88.0486 87.1198 85.3504 81.8702 98.3685 94.3473 92.2172 91.043 90.381 90.0023 89.7833 89.6554 89.5802 89.5356 89.509 89.493 89.4831 89.4769 89.4727 89.4693 89.4658 89.4614 89.455 89.4446 89.4273 89.398 89.3479 89.261 89.1084 88.8366 88.3431 87.4247 85.6638 82.1871 98.4221 94.5024 92.4569 91.3464 90.7294 90.381 90.1818 90.0667 89.9995 89.9601 89.9367 89.9226 89.9141 89.9087 89.905 89.9021 89.8991 89.8953 89.8896 89.8804 89.8649 89.8385 89.7928 89.7126 89.57 89.3122 88.837 87.9397 86.1978 82.7297 98.5223 94.7924 92.8972 91.8929 91.3464 91.043 90.8719 90.7741 90.7176 90.6847 90.6653 90.6537 90.6467 90.6423 90.6393 90.6369 90.6344 90.6313 90.6266 90.6189 90.6059 90.5834 90.544 90.4739 90.3472 90.1135 89.6727 88.8192 87.1221 83.6774 98.7133 95.3541 93.728 92.8972 92.4569 92.2172 92.0841 92.0089 91.9658 91.9409 91.9263 91.9176 91.9124 91.9091 91.9069 91.9051 91.9033 91.901 91.8974 91.8916 91.8816 91.8643 91.8336 91.778 91.6755 91.4816 91.1034 90.3412 88.7541 85.3837 99.0772 96.5021 95.3541 94.7924 94.5024 94.3473 94.2622 94.2146 94.1875 94.1719 94.1628 94.1574 94.1542 94.1522 94.1508 94.1497 94.1486 94.1472 94.1449 94.1413 94.135 94.124 94.1043 94.0681 94 93.8674 93.5975 93.0192 91.7098 88.613 99.714 99.0772 98.7133 98.5223 98.4221 98.3685 98.3392 98.3229 98.3136 98.3083 98.3052 98.3034 98.3023 98.3016 98.3012 98.3008 98.3004 98.2999 98.2992 98.2979 98.2958 98.292 98.2852 98.2726 98.2484 98.2001 98.0971 97.8568 97.2228 95.2918 93.7862 85.2541 80.7324 78.221 76.7845 75.9466 75.4509 75.1546 74.976 74.8675 74.8012 74.7603 74.7347 74.7182 74.7068 74.698 74.6895 74.6794 74.6654 74.6439 74.6097 74.5541 74.4624 74.3101 74.0548 73.6224 72.8828 71.6045 69.3797 65.5194 96.1276 88.6897 84.4553 82.0304 80.6238 79.7975 79.3068 79.0127 78.8351 78.7272 78.6611 78.6204 78.5949 78.5784 78.5671 78.5582 78.5497 78.5397 78.5256 78.5042 78.47 78.4143 78.3227 78.1704 77.915 77.4827 76.7431 75.4647 73.24 69.3797 96.938 90.3139 86.4252 84.1435 82.7976 81.9981 81.5197 81.2315 81.0568 80.9503 80.885 80.8447 80.8194 80.803 80.7918 80.7829 80.7745 80.7644 80.7504 80.729 80.6948 80.6391 80.5475 80.3952 80.1398 79.7075 78.9678 77.6895 75.4647 71.6045 97.2643 91.0921 87.453 85.2978 84.0142 83.2452 82.782 82.5014 82.3307 82.2263 82.1621 82.1223 82.0973 82.0811 82.07 82.0612 82.0528 82.0428 82.0287 82.0073 81.9731 81.9174 81.8258 81.6735 81.4182 80.9858 80.2462 78.9678 76.7431 72.8828 97.4114 91.4768 87.9926 85.9282 84.695 83.9532 83.5046 83.2318 83.0653 82.9631 82.9001 82.861 82.8364 82.8205 82.8094 82.8007 82.7924 82.7824 82.7684 82.7469 82.7127 82.6571 82.5654 82.4132 82.1578 81.7255 80.9858 79.7075 77.4827 73.6224 97.483 91.6734 88.2803 86.2752 85.0781 84.3576 83.9211 83.6552 83.4925 83.3926 83.3308 83.2924 83.2682 83.2525 83.2416 83.233 83.2246 83.2147 83.2007 83.1792 83.1451 83.0894 82.9978 82.8455 82.5901 82.1578 81.4182 80.1398 77.915 74.0548 97.5198 91.7771 88.4363 86.4682 85.2955 84.5902 84.163 83.9027 83.7433 83.6452 83.5846 83.5469 83.523 83.5075 83.4968 83.4882 83.4799 83.47 83.456 83.4346 83.4004 83.3448 83.2531 83.1008 82.8455 82.4132 81.6735 80.3952 78.1704 74.3101 97.5394 91.8331 88.5224 86.5768 85.4198 84.7251 84.3046 84.0485 83.8916 83.7952 83.7355 83.6983 83.6748 83.6595 83.6489 83.6404 83.6321 83.6222 83.6083 83.5868 83.5527 83.497 83.4054 83.2531 82.9978 82.5654 81.8258 80.5475 78.3227 74.4624 97.5501 91.8641 88.5706 86.6387 85.4916 84.8038 84.388 84.1349 83.9801 83.8848 83.8259 83.7892 83.766 83.7509 83.7403 83.7319 83.7237 83.7138 83.6999 83.6785 83.6443 83.5887 83.497 83.3448 83.0894 82.6571 81.9174 80.6391 78.4143 74.5541 97.5561 91.8815 88.5981 86.6743 85.5335 84.8502 84.4375 84.1866 84.0332 83.9388 83.8805 83.8442 83.8212 83.8062 83.7958 83.7874 83.7793 83.7694 83.7555 83.7341 83.6999 83.6443 83.5527 83.4004 83.1451 82.7127 81.9731 80.6948 78.47 74.6097 97.5595 91.8915 88.614 86.6951 85.5581 84.8777 84.4672 84.2178 84.0653 83.9717 83.9138 83.8778 83.855 83.8402 83.8298 83.8215 83.8134 83.8035 83.7896 83.7682 83.7341 83.6785 83.5868 83.4346 83.1792 82.7469 82.0073 80.729 78.5042 74.6439 97.5615 91.8974 88.6234 86.7074 85.5729 84.8944 84.4853 84.2369 84.0852 83.992 83.9345 83.8987 83.8761 83.8613 83.851 83.8428 83.8347 83.8249 83.811 83.7896 83.7555 83.6999 83.6083 83.456 83.2007 82.7684 82.0287 80.7504 78.5256 74.6654 97.5627 91.901 88.6291 86.715 85.5821 84.9049 84.4967 84.249 84.0979 84.0051 83.9478 83.9122 83.8897 83.8751 83.8648 83.8566 83.8486 83.8387 83.8249 83.8035 83.7694 83.7138 83.6222 83.47 83.2147 82.7824 82.0428 80.7645 78.5397 74.6794 97.5635 91.9033 88.6329 86.7201 85.5883 84.912 84.5045 84.2574 84.1066 84.0142 83.9571 83.9217 83.8993 83.8847 83.8745 83.8664 83.8583 83.8486 83.8347 83.8134 83.7793 83.7237 83.6322 83.4799 83.2247 82.7924 82.0528 80.7745 78.5498 74.6895 97.5641 91.9051 88.6358 86.7241 85.5931 84.9175 84.5107 84.264 84.1137 84.0215 83.9647 83.9294 83.9071 83.8926 83.8825 83.8744 83.8664 83.8566 83.8428 83.8215 83.7874 83.7319 83.6404 83.4882 83.233 82.8008 82.0612 80.783 78.5582 74.698 97.5647 91.9069 88.6387 86.728 85.5979 84.9231 84.5169 84.2707 84.1207 84.0288 83.9723 83.9371 83.915 83.9006 83.8905 83.8825 83.8745 83.8648 83.851 83.8298 83.7958 83.7403 83.6489 83.4968 83.2416 82.8095 82.07 80.7918 78.5671 74.7069 97.5655 91.9091 88.6423 86.7329 85.6039 84.93 84.5246 84.279 84.1295 84.038 83.9817 83.9468 83.9248 83.9106 83.9006 83.8926 83.8847 83.8751 83.8613 83.8402 83.8062 83.7509 83.6595 83.5076 83.2525 82.8205 82.0812 80.8031 78.5785 74.7182 97.5666 91.9124 88.6476 86.74 85.6127 84.9401 84.5358 84.2911 84.1423 84.0513 83.9954 83.9607 83.939 83.9248 83.915 83.9071 83.8993 83.8897 83.8761 83.855 83.8212 83.766 83.6749 83.5231 83.2683 82.8365 82.0974 80.8195 78.595 74.7348 97.5684 91.9176 88.6561 86.7514 85.6265 84.956 84.5533 84.31 84.1621 84.0719 84.0165 83.9822 83.9607 83.9468 83.9371 83.9294 83.9217 83.9122 83.8987 83.8778 83.8442 83.7892 83.6984 83.547 83.2925 82.8612 82.1224 80.8448 78.6206 74.7605 97.5713 91.9263 88.6701 86.77 85.6491 84.9819 84.5818 84.3404 84.194 84.1048 84.0502 84.0165 83.9954 83.9817 83.9723 83.9647 83.9571 83.9479 83.9345 83.9139 83.8805 83.826 83.7356 83.5847 83.331 82.9003 82.1623 80.8853 78.6614 74.8015 97.5763 91.9409 88.6935 86.8012 85.6868 85.0247 84.6286 84.3901 84.2459 84.1583 84.1048 84.0719 84.0513 84.038 84.0289 84.0215 84.0142 84.0051 83.9921 83.9717 83.9389 83.8849 83.7953 83.6454 83.3928 82.9634 82.2267 80.9508 78.7277 74.8681 97.5847 91.9658 88.7334 86.854 85.7501 85.0962 84.7062 84.4723 84.3313 84.2459 84.194 84.1621 84.1423 84.1295 84.1207 84.1137 84.1066 84.0979 84.0852 84.0654 84.0332 83.9802 83.8918 83.7436 83.4929 83.0658 82.3313 81.0576 78.8361 74.9769 97.5994 92.0089 88.802 86.9439 85.857 85.2161 84.8357 84.6085 84.4723 84.3901 84.3404 84.31 84.2911 84.279 84.2707 84.264 84.2574 84.2491 84.2369 84.2178 84.1867 84.1351 84.0487 83.9031 83.6558 83.2326 82.5025 81.2329 79.0143 75.1563 97.6252 92.0841 88.9208 87.0985 86.0393 85.4188 85.0528 84.8357 84.7062 84.6286 84.5818 84.5533 84.5358 84.5246 84.5169 84.5107 84.5045 84.4967 84.4853 84.4673 84.4376 84.3882 84.3049 84.1636 83.9219 83.5058 82.7838 81.5221 79.3097 75.454 97.671 92.2172 89.1293 87.3668 86.3521 85.7631 85.4188 85.2161 85.0962 85.0247 84.9819 84.956 84.9401 84.93 84.9231 84.9175 84.912 84.9049 84.8945 84.8778 84.8503 84.8041 84.7255 84.591 84.3588 83.9552 83.2482 82.0023 79.8028 75.9524 97.7538 92.4569 89.5001 87.8372 86.8931 86.3521 86.0393 85.857 85.7501 85.6868 85.6491 85.6265 85.6127 85.6039 85.5979 85.5932 85.5883 85.5822 85.573 85.5582 85.5337 85.492 85.4204 85.2965 85.0798 84.6979 84.0189 82.8049 80.6337 76.7958 97.906 92.8972 90.1703 88.6715 87.8372 87.3668 87.0985 86.9439 86.854 86.8012 86.77 86.7514 86.74 86.7329 86.728 86.7241 86.7201 86.7151 86.7075 86.6952 86.6745 86.639 86.5775 86.4694 86.2774 85.9322 85.305 84.1557 82.0491 78.2441 98.1896 93.728 91.4047 90.1703 89.5001 89.1293 88.9208 88.802 88.7334 88.6935 88.6701 88.6561 88.6476 88.6423 88.6387 88.6358 88.6329 88.6291 88.6234 88.6141 88.5983 88.571 88.523 88.4375 88.2827 87.9976 87.4629 86.4448 84.4909 80.784 98.7133 95.3541 93.728 92.8972 92.4569 92.2172 92.0841 92.0089 91.9658 91.9409 91.9263 91.9176 91.9124 91.9091 91.9069 91.9051 91.9033 91.901 91.8974 91.8916 91.8816 91.8643 91.8336 91.778 91.6755 91.4816 91.1034 90.3412 88.7541 85.3837 99.5937 98.7133 98.1896 97.906 97.7538 97.671 97.6252 97.5994 97.5847 97.5763 97.5713 97.5684 97.5666 97.5655 97.5647 97.5641 97.5635 97.5627 97.5615 97.5595 97.5561 97.5502 97.5396 97.5202 97.4839 97.4138 97.2711 96.9608 96.2155 94.1689 93.1795 83.5372 78.1854 75.1098 73.3069 72.2362 71.5943 71.2067 70.9711 70.8271 70.7385 70.6837 70.6493 70.627 70.6116 70.5996 70.5882 70.5747 70.5559 70.5274 70.4823 70.4096 70.291 70.0966 69.7762 69.2457 68.3649 66.9008 64.4746 60.4946 95.555 87.0501 82.0077 79.0292 77.2611 76.2045 75.5687 75.1839 74.9497 74.8064 74.7182 74.6635 74.6292 74.607 74.5917 74.5797 74.5682 74.5547 74.536 74.5075 74.4624 74.3896 74.2711 74.0767 73.7562 73.2258 72.3449 70.8808 68.4547 64.4746 96.4103 88.7878 84.1324 81.3195 79.6239 78.6 77.9796 77.6022 77.3717 77.2303 77.1432 77.089 77.055 77.0329 77.0177 77.0057 76.9943 76.9808 76.9621 76.9336 76.8885 76.8158 76.6972 76.5028 76.1824 75.6519 74.7711 73.307 70.8808 66.9008 96.7715 89.6593 85.2928 82.6302 81.0102 80.0243 79.423 79.0554 78.83 78.6913 78.6055 78.5522 78.5185 78.4967 78.4816 78.4698 78.4584 78.4449 78.4262 78.3977 78.3526 78.2799 78.1614 77.9669 77.6465 77.116 76.2352 74.7711 72.3449 68.3649 96.9417 90.1077 85.9261 83.3739 81.8162 80.8644 80.2817 79.9241 79.7041 79.5684 79.4843 79.4318 79.3987 79.3772 79.3622 79.3505 79.3392 79.3257 79.307 79.2785 79.2335 79.1607 79.0422 78.8478 78.5273 77.9969 77.116 75.6519 73.2258 69.2457 97.0276 90.3446 86.2743 83.7956 82.2834 81.3585 80.7914 80.4428 80.2279 80.095 80.0125 79.961 79.9284 79.9072 79.8924 79.8808 79.8695 79.8561 79.8374 79.809 79.7639 79.6912 79.5726 79.3782 79.0578 78.5273 77.6465 76.1824 73.7562 69.7762 97.073 90.4727 86.4678 84.0357 82.5545 81.6493 81.0942 80.7528 80.5422 80.4119 80.3309 80.2803 80.2482 80.2272 80.2126 80.2011 80.1899 80.1765 80.1578 80.1294 80.0843 80.0116 79.8931 79.6987 79.3782 78.8478 77.9669 76.5028 74.0767 70.0966 97.0976 90.5434 86.5767 84.1733 82.7123 81.8207 81.2745 80.9386 80.7314 80.6031 80.5234 80.4735 80.4419 80.4212 80.4068 80.3953 80.3842 80.3709 80.3522 80.3238 80.2787 80.206 80.0875 79.8931 79.5726 79.0422 78.1614 76.6972 74.2711 70.291 97.1113 90.5831 86.6386 84.2528 82.8047 81.9222 81.3821 81.0502 80.8456 80.719 80.6403 80.591 80.5598 80.5393 80.5251 80.5137 80.5026 80.4893 80.4707 80.4423 80.3972 80.3245 80.206 80.0116 79.6912 79.1607 78.2799 76.8158 74.3896 70.4096 97.1191 90.6057 86.6742 84.2991 82.8592 81.9826 81.4466 81.1176 80.9149 80.7895 80.7116 80.6629 80.6319 80.6117 80.5976 80.5863 80.5752 80.562 80.5434 80.515 80.4699 80.3972 80.2787 80.0843 79.7639 79.2335 78.3526 76.8885 74.4624 70.4823 97.1236 90.6188 86.695 84.3263 82.8915 82.0188 81.4857 81.1586 80.9573 80.8328 80.7555 80.7071 80.6765 80.6564 80.6424 80.6312 80.6202 80.6069 80.5883 80.56 80.515 80.4423 80.3238 80.1294 79.809 79.2785 78.3977 76.9336 74.5075 70.5274 97.1262 90.6265 86.7074 84.3427 82.9111 82.0409 81.5096 81.184 80.9836 80.8598 80.7829 80.7349 80.7044 80.6845 80.6706 80.6594 80.6485 80.6353 80.6167 80.5883 80.5434 80.4707 80.3522 80.1578 79.8374 79.307 78.4262 76.9621 74.536 70.5559 97.1278 90.6313 86.715 84.3528 82.9233 82.0548 81.5248 81.2002 81.0005 80.8772 80.8007 80.7529 80.7227 80.7029 80.689 80.6779 80.667 80.6538 80.6353 80.6069 80.562 80.4893 80.3709 80.1765 79.8561 79.3257 78.4449 76.9808 74.5547 70.5747 97.1289 90.6344 86.7201 84.3596 82.9316 82.0643 81.5353 81.2114 81.0122 80.8894 80.8132 80.7656 80.7355 80.7158 80.702 80.691 80.6801 80.667 80.6485 80.6202 80.5752 80.5026 80.3842 80.1899 79.8695 79.3392 78.4584 76.9944 74.5683 70.5882 97.1297 90.6369 86.7241 84.3649 82.9381 82.0718 81.5436 81.2203 81.0217 80.8992 80.8234 80.776 80.746 80.7265 80.7128 80.7018 80.691 80.6779 80.6594 80.6312 80.5863 80.5137 80.3953 80.2011 79.8808 79.3505 78.4698 77.0058 74.5797 70.5997 97.1305 90.6393 86.728 84.3702 82.9446 82.0793 81.552 81.2294 81.0313 80.9092 80.8336 80.7865 80.7567 80.7373 80.7237 80.7128 80.702 80.689 80.6706 80.6424 80.5976 80.5251 80.4068 80.2127 79.8925 79.3623 78.4817 77.0177 74.5917 70.6117 97.1316 90.6423 86.7329 84.3768 82.9527 82.0887 81.5624 81.2406 81.0432 80.9217 80.8465 80.7996 80.77 80.7508 80.7373 80.7265 80.7158 80.7029 80.6845 80.6564 80.6117 80.5394 80.4212 80.2273 79.9073 79.3772 78.4968 77.033 74.6071 70.6271 97.133 90.6467 86.74 84.3864 82.9645 82.1023 81.5775 81.2569 81.0604 80.9395 80.8649 80.8184 80.7891 80.77 80.7567 80.746 80.7355 80.7227 80.7045 80.6765 80.632 80.5598 80.4419 80.2482 79.9285 79.3988 78.5187 77.0551 74.6293 70.6494 97.1354 90.6537 86.7514 84.4017 82.9831 82.1236 81.6011 81.2822 81.0871 80.9672 80.8933 80.8473 80.8184 80.7996 80.7865 80.776 80.7656 80.753 80.7349 80.7072 80.6629 80.5911 80.4736 80.2803 79.9612 79.432 78.5524 77.0892 74.6638 70.6839 97.1393 90.6653 86.77 84.4266 83.0134 82.1583 81.6392 81.323 81.1298 81.0113 80.9384 80.8933 80.8649 80.8465 80.8336 80.8234 80.8132 80.8007 80.783 80.7555 80.7117 80.6403 80.5235 80.331 80.0127 79.4845 78.6058 77.1435 74.7186 70.739 97.1459 90.6847 86.8012 84.4681 83.0635 82.2153 81.7015 81.3893 81.1991 81.0827 81.0113 80.9672 80.9395 80.9217 80.9092 80.8993 80.8894 80.8772 80.8598 80.8328 80.7896 80.7191 80.6033 80.4121 80.0953 79.5688 78.6918 77.2309 74.807 70.8278 97.1571 90.7176 86.854 84.5379 83.1472 82.31 81.8044 81.4983 81.3123 81.1991 81.1298 81.0871 81.0604 81.0432 81.0313 81.0217 81.0123 81.0005 80.9836 80.9573 80.915 80.8458 80.7316 80.5426 80.2284 79.7048 78.8308 77.3728 74.9509 70.9723 97.1764 90.7741 86.9439 84.6561 83.2879 82.4679 81.975 81.6779 81.4983 81.3893 81.323 81.2822 81.2569 81.2406 81.2294 81.2204 81.2114 81.2002 81.184 81.1587 81.1178 81.0504 80.9389 80.7533 80.4435 79.9252 79.0568 77.604 75.186 71.2089 97.2099 90.8719 87.0985 84.8575 83.5257 82.7325 82.2588 81.975 81.8044 81.7015 81.6392 81.6011 81.5775 81.5624 81.552 81.5436 81.5353 81.5249 81.5097 81.4858 81.4468 81.3823 81.2749 81.0949 80.7925 80.2833 79.4253 77.9827 75.5725 71.5983 97.2688 91.043 87.3668 85.2033 83.9295 83.1777 82.7325 82.4679 82.31 82.2153 82.1583 82.1236 82.1023 82.0887 82.0793 82.0718 82.0643 82.0548 82.041 82.0189 81.9828 81.9225 81.8213 81.6502 81.3601 80.8669 80.028 78.6053 76.2112 72.2435 97.3735 91.3464 87.8372 85.8014 84.6188 83.9295 83.5257 83.2879 83.1472 83.0635 83.0134 82.9831 82.9645 82.9527 82.9446 82.9382 82.9316 82.9234 82.9112 82.8917 82.8594 82.8052 82.7131 82.5557 82.2855 81.8199 81.0162 79.6329 77.2733 73.3207 97.5625 91.8929 88.6715 86.8434 85.8014 85.2033 84.8575 84.6561 84.5379 84.4681 84.4266 84.4017 84.3864 84.3768 84.3702 84.3649 84.3596 84.3528 84.3427 84.3264 84.2993 84.2532 84.1741 84.0372 83.7984 83.3789 82.6391 81.3345 79.0516 75.1373 97.906 92.8972 90.1703 88.6715 87.8372 87.3668 87.0985 86.9439 86.854 86.8012 86.77 86.7514 86.74 86.7329 86.728 86.7241 86.7201 86.7151 86.7075 86.6952 86.6745 86.639 86.5775 86.4694 86.2774 85.9322 85.305 84.1557 82.0491 78.2441 98.5223 94.7924 92.8972 91.8929 91.3464 91.043 90.8719 90.7741 90.7176 90.6847 90.6653 90.6537 90.6467 90.6423 90.6393 90.6369 90.6344 90.6313 90.6266 90.6189 90.6059 90.5834 90.544 90.4739 90.3472 90.1135 89.6727 88.8192 87.1221 83.6774 99.5282 98.5223 97.906 97.5625 97.3735 97.2688 97.2099 97.1764 97.1571 97.1459 97.1393 97.1354 97.133 97.1316 97.1305 97.1297 97.1289 97.1279 97.1262 97.1236 97.1192 97.1115 97.0979 97.0735 97.0288 96.9445 96.7794 96.4355 95.6486 93.5726 92.8473 82.5854 76.7337 73.2908 71.2333 69.9921 69.2386 68.7788 68.497 68.3236 68.2163 68.1495 68.1074 68.0801 68.0612 68.0464 68.0323 68.0158 67.993 67.9587 67.9049 67.8187 67.6797 67.4546 67.0892 66.4954 65.5309 63.9682 61.4496 57.4251 95.2323 86.1227 80.5894 77.2487 75.2288 74.0031 73.2565 72.8 72.5198 72.3471 72.2403 72.1738 72.1318 72.1045 72.0856 72.0709 72.0568 72.0403 72.0175 71.9832 71.9293 71.8432 71.7042 71.4791 71.1137 70.5199 69.5554 67.9927 65.4741 61.4496 96.1048 87.9063 82.7795 79.6164 77.6757 76.4866 75.7574 75.3094 75.0336 74.8632 74.7575 74.6916 74.6499 74.6229 74.6041 74.5894 74.5754 74.5589 74.5361 74.5018 74.448 74.3618 74.2228 73.9978 73.6323 73.0385 72.074 70.5113 67.9927 63.9682 96.4823 88.8225 84.0055 81.0062 79.1494 78.0031 77.2958 76.8592 76.5893 76.4221 76.3181 76.2531 76.212 76.1852 76.1666 76.152 76.138 76.1216 76.0988 76.0645 76.0107 75.9245 75.7855 75.5605 75.1951 74.6013 73.6367 72.074 69.5554 65.5309 96.6649 89.3057 84.691 81.8141 80.0274 78.92 78.2342 77.8093 77.5458 77.3821 77.2801 77.2162 77.1757 77.1492 77.1308 77.1163 77.1025 77.086 77.0633 77.029 76.9752 76.889 76.75 76.525 76.1596 75.5658 74.6013 73.0385 70.5199 66.4954 96.7593 89.567 85.0764 82.2824 80.5475 79.4711 78.8034 78.389 78.1315 77.9713 77.8713 77.8085 77.7686 77.7425 77.7243