<?xml version="1.0"?>
<VTKFile type="ImageData" version="0.1" byte_order="LittleEndian">
  <ImageData WholeExtent="0 49 0 49 0 49" Origin="0 0 0" Spacing="1 1 1">
    <Piece Extent="0 49 0 49 0 49">
      <PointData Scalars="temperature">
        <DataArray type="Float64" Name="temperature" format="ascii">
100 100 100 100 100 100 100 100 100 100 100 100 100 100 100 100 100 100 100 100 100 100 100 100 100 100 100 100 100 100 100 100 100 100 100 100 100 100 100 100 100 100 100 100 100 100 100 100 100 100 100 100 100 100 100 100 100 100 100 100 100 100 100 100 100 100 100 100 100 100 100 100 100 100 100 100 100 100 100 100 100 100 100 100 100 100 100 100 100 100 100 100 100 100 100 100 100 100 100 100 100 100 100 100 100 100 100 100 100 100 100 100 100 100 100 100 100 100 100 100 100 100 100 100 100 100 100 100 100 100 100 100 100 100 100 100 100 100 100 100 100 100 100 100 100 100 100 100 100 100 100 100 100 100 100 100 100 100 100 100 100 100 100 100 100 100 100 100 100 100 100 100 100 100 100 100 100 100 100 100 100 100 100 100 100 100 100 100 100 100 100 100 100 100 100 100 100 100 100 100 100 100 100 100 100 100 100 100 100 100 100 100 100 100 100 100 100 100 100 100 100 100 100 100 100 100 100 100 100 100 100 100 100 100 100 100 100 100 100 100 100 100 100 100 100 100 100 100 100 100 100 100 100 100 100 100 100 100 100 100 100 100 100 100 100 100 100 100 100 100 100 100 100 100 100 100 100 100 100 100 100 100 100 100 100 100 100 100 100 100 100 100 100 100 100 100 100 100 100 100 100 100 100 100 100 100 100 100 100 100 100 100 100 100 100 100 100 100 100 100 100 100 100 100 100 100 100 100 100 100 100 100 100 100 100 100 100 100 100 100 100 100 100 100 100 100 100 100 100 100 100 100 100 100 100 100 100 100 100 100 100 100 100 100 100 100 100 100 100 100 100 100 100 100 100 100 100 100 100 100 100 100 100 100 100 100 100 100 100 100 100 100 100 100 100 100 100 100 100 100 100 100 100 100 100 100 100 100 100 100 100 100 100 100 100 100 100 100 100 100 100 100 100 100 100 100 100 100 100 100 100 100 100 100 100 100 100 100 100 100 100 100 100 100 100 100 100 100 100 100 100 100 100 100 100 100 100 100 100 100 100 100 100 100 100 100 100 100 100 100 100 100 100 100 100 100 100 100 100 100 100 100 100 100 100 100 100 100 100 100 100 100 100 100 100 100 100 100 100 100 100 100 100 100 100 100 100 100 100 100 100 100 100 100 100 100 100 100 100 100 100 100 100 100 100 100 100 100 100 100 100 100 100 100 100 100 100 100 100 100 100 100 100 100 100 100 100 100 100 100 100 100 100 100 100 100 100 100 100 100 100 100 100 100 100 100 100 100 100 100 100 100 100 100 100 100 100 100 100 100 100 100 100 100 100 100 100 100 100 100 100 100 100 100 100 100 100 100 100 100 100 100 100 100 100 100 100 100 100 100 100 100 100 100 100 100 100 100 100 100 100 100 100 100 100 100 100 100 100 100 100 100 100 100 100 100 100 100 100 100 100 100 100 100 100 100 100 100 100 100 100 100 100 100 100 100 100 100 100 100 100 100 100 100 100 100 100 100 100 100 100 100 100 100 100 100 100 100 100 100 100 100 100 100 100 100 100 100 100 100 100 100 100 100 100 100 100 100 100 100 100 100 100 100 100 100 100 100 100 100 100 100 100 100 100 100 100 100 100 100 100 100 100 100 100 100 100 100 100 100 100 100 100 100 100 100 100 100 100 100 100 100 100 100 100 100 100 100 100 100 100 100 100 100 100 100 100 100 100 100 100 100 100 100 100 100 100 100 100 100 100 100 100 100 100 100 100 100 100 100 100 100 100 100 100 100 100 100 100 100 100 100 100 100 100 100 100 100 100 100 100 100 100 100 100 100 100 100 100 100 100 100 100 100 100 100 100 100 100 100 100 100 100 100 100 100 100 100 100 100 100 100 100 100 100 100 100 100 100 100 100 100 100 100 100 100 100 100 100 100 100 100 100 100 100 100 100 100 100 100 100 100 100 100 100 100 100 100 100 100 100 100 100 100 100 100 100 100 100 100 100 100 100 100 100 100 100 100 100 100 100 100 100 100 100 100 100 100 100 100 100 100 100 100 100 100 100 100 100 100 100 100 100 100 100 100 100 100 100 100 100 100 100 100 100 100 100 100 100 100 100 100 100 100 100 100 100 100 100 100 100 100 100 100 100 100 100 100 100 100 100 100 100 100 100 100 100 100 100 100 100 100 100 100 100 100 100 100 100 100 100 100 100 100 100 100 100 100 100 100 100 100 100 100 100 100 100 100 100 100 100 100 100 100 100 100 100 100 100 100 100 100 100 100 100 100 100 100 100 100 100 100 100 100 100 100 100 100 100 100 100 100 100 100 100 100 100 100 100 100 100 100 100 100 100 100 100 100 100 100 100 100 100 100 100 100 100 100 100 100 100 100 100 100 100 100 100 100 100 100 100 100 100 100 100 100 100 100 100 100 100 100 100 100 100 100 100 100 100 100 100 100 100 100 100 100 100 100 100 100 100 100 100 100 100 100 100 100 100 100 100 100 100 100 100 100 100 100 100 100 100 100 100 100 100 100 100 100 100 100 100 100 100 100 100 100 100 100 100 100 100 100 100 100 100 100 100 100 100 100 100 100 100 100 100 100 100 100 100 100 100 100 100 100 100 100 100 100 100 100 100 100 100 100 100 100 100 100 100 100 100 100 100 100 100 100 100 100 100 100 100 100 100 100 100 100 100 100 100 100 100 100 100 100 100 100 100 100 100 100 100 100 100 100 100 100 100 100 100 100 100 100 100 100 100 100 100 100 100 100 100 100 100 100 100 100 100 100 100 100 100 100 100 100 100 100 100 100 100 100 100 100 100 100 100 100 100 100 100 100 100 100 100 100 100 100 100 100 100 100 100 100 100 100 100 100 100 100 100 100 100 100 100 100 100 100 100 100 100 100 100 100 100 100 100 100 100 100 100 100 100 100 100 100 100 100 100 100 100 100 100 100 100 100 100 100 100 100 100 100 100 100 100 100 100 100 100 100 100 100 100 100 100 100 100 100 100 100 100 100 100 100 100 100 100 100 100 100 100 100 100 100 100 100 100 100 100 100 100 100 100 100 100 100 100 100 100 100 100 100 100 100 100 100 100 100 100 100 100 100 100 100 100 100 100 100 100 100 100 100 100 100 100 100 100 100 100 100 100 100 100 100 100 100 100 100 100 100 100 100 100 100 100 100 100 100 100 100 100 100 100 100 100 100 100 100 100 100 100 100 100 100 100 100 100 100 100 100 100 100 100 100 100 100 100 100 100 100 100 100 100 100 100 100 100 100 100 100 100 100 100 100 100 100 100 100 100 100 100 100 100 100 100 100 100 100 100 100 100 100 100 100 100 100 100 100 100 100 100 100 100 100 100 100 100 100 100 100 100 100 100 100 100 100 100 100 100 100 100 100 100 100 100 100 100 100 100 100 100 100 100 100 100 100 100 100 100 100 100 100 100 100 100 100 100 100 100 100 100 100 100 100 100 100 100 100 100 100 100 100 100 100 100 100 100 100 100 100 100 100 100 100 100 100 100 100 100 100 100 100 100 100 100 100 100 100 100 100 100 100 100 100 100 100 100 100 100 100 100 100 100 100 100 100 100 100 100 100 100 100 100 100 100 100 100 100 100 100 100 100 100 100 100 100 100 100 100 100 100 100 100 100 100 100 100 100 100 100 100 100 100 100 100 100 100 100 100 100 100 100 100 100 100 100 100 100 100 100 100 100 100 100 100 100 100 100 100 100 100 100 100 100 100 100 100 100 100 100 100 100 100 100 100 100 100 100 100 100 100 100 100 100 100 100 100 100 100 100 100 100 100 100 100 100 100 100 100 100 100 100 100 100 100 100 100 100 100 100 100 100 100 100 100 100 100 100 100 100 100 100 100 100 100 100 100 100 100 100 100 100 100 100 100 100 100 100 100 100 100 100 100 100 100 100 100 100 100 100 100 100 100 100 100 100 100 100 100 100 100 100 100 100 100 100 100 100 100 100 100 100 100 100 100 100 100 100 100 100 100 100 100 100 100 100 100 100 100 100 100 100 100 100 100 100 100 100 100 100 100 100 100 100 100 100 100 100 100 100 100 100 100 100 100 100 100 100 100 100 100 100 100 100 100 100 100 100 100 100 100 100 100 100 100 100 100 100 100 100 100 100 100 100 100 100 100 100 100 100 100 100 100 100 100 100 100 100 100 100 100 100 100 100 100 100 100 100 100 100 100 100 100 100 100 100 100 100 100 100 100 100 100 100 100 100 100 100 100 100 100 100 100 100 100 100 100 100 100 100 100 100 100 100 100 100 100 100 100 100 100 100 100 100 100 100 100 100 100 100 100 100 100 100 100 100 100 100 100 100 100 100 100 100 100 100 100 100 100 100 100 100 100 100 100 100 100 100 100 100 100 100 100 100 100 100 100 100 100 100 100 100 100 100 100 100 100 100 100 100 100 100 100 100 100 100 100 100 100 100 100 100 100 100 100 100 100 100 100 100 100 100 100 100 100 100 100 100 100 100 100 100 100 100 100 100 100 100 100 100 100 100 100 100 100 100 100 100 100 100 100 100 100 100 100 100 100 100 100 100 100 100 100 100 100 100 100 100 100 100 100 100 100 100 100 100 100 100 100 100 100 100 100 100 100 100 100 100 100 100 100 100 100 100 100 100 100 100 100 100 100 100 100 100 100 100 100 100 100 100 100 100 100 100 100 100 100 100 100 100 100 100 100 100 100 100 100 100 100 100 100 100 100 100 100 100 100 100 100 100 100 100 100 100 100 100 100 100 100 100 100 100 100 100 100 100 100 100 100 100 100 100 100 100 100 100 100 100 100 100 100 100 100 100 100 100 100 100 100 100 100 100 100 100 100 100 100 100 100 100 100 100 100 100 100 100 100 100 100 100 100 100 100 100 100 100 100 100 100 100 100 100 100 100 100 100 100 100 100 100 100 100 100 100 100 100 100 100 100 100 100 100 100 100 100 100 100 100 100 100 100 100 100 100 100 100 100 100 100 100 100 100 100 100 100 100 100 100 100 100 100 100 100 100 100 100 100 100 100 100 100 100 100 100 100 100 100 100 100 100 100 100 100 100 100 100 100 100 100 100 100 100 100 100 100 100 100 100 100 100 100 100 100 100 100 100 100 100 100 100 100 100 100 100 100 100 100 100 100 100 100 100 100 100 100 100 100 100 100 100 100 100 100 100 100 100 100 100 100 100 100 100 100 100 100 100 100 100 100 100 100 100 100 100 100 100 100 100 100 100 100 100 100 100 100 100 100 100 100 100 100 100 100 100 100 100 100 100 100 100 100 100 100 100 100 100 100 100 100 100 100 100 100 100 100 100 100 100 100 100 100 100 100 100 100 100 100 100 100 100 100 100 100 100 100 100 100 100 100 100 100 100 100 100 100 100 100 100 100 100 100 100 100 100 100 100 100 100 100 100 100 100 100 100 100 100 100 100 100 100 100 100 100 100 100 100 100 100 100 100 100 100 100 100 100 100 100 100 100 100 100 100 100 100 100 100 100 100 100 100 100 100 100 100 100 100 100 100 100 100 100 100 100 100 100 100 100 100 100 100 100 100 100 100 100 100 100 100 100 100 100 100 100 100 100 100 100 100 100 100 100 100 100 100 100 100 100 100 100 100 100 100 100 100 100 100 100 100 100 100 100 100 101.686 101.413 101.286 101.213 101.166 101.131 101.104 101.082 101.064 101.048 101.035 101.024 101.014 101.005 100.997 100.991 100.985 100.98 100.976 100.972 100.969 100.967 100.965 100.964 100.963 100.963 100.964 100.965 100.967 100.969 100.972 100.976 100.98 100.985 100.991 100.997 101.005 101.014 101.024 101.035 101.048 101.064 101.082 101.104 101.131 101.166 101.213 101.286 101.413 101.686 101.413 101.14 101.013 100.941 100.893 100.858 100.831 100.809 100.791 100.776 100.762 100.751 100.741 100.732 100.725 100.718 100.712 100.707 100.703 100.699 100.696 100.694 100.692 100.691 100.691 100.691 100.691 100.692 100.694 100.696 100.699 100.703 100.707 100.712 100.718 100.725 100.732 100.741 100.751 100.762 100.776 100.791 100.809 100.831 100.858 100.893 100.941 101.013 101.14 101.413 101.286 101.013 100.886 100.813 100.766 100.731 100.704 100.682 100.664 100.648 100.635 100.624 100.614 100.605 100.597 100.591 100.585 100.58 100.576 100.572 100.569 100.567 100.565 100.564 100.563 100.563 100.564 100.565 100.567 100.569 100.572 100.576 100.58 100.585 100.591 100.597 100.605 100.614 100.624 100.635 100.648 100.664 100.682 100.704 100.731 100.766 100.813 100.886 101.013 101.286 101.213 100.941 100.813 100.741 100.693 100.659 100.631 100.61 100.591 100.576 100.563 100.551 100.541 100.533 100.525 100.518 100.513 100.508 100.503 100.5 100.497 100.494 100.493 100.492 100.491 100.491 100.492 100.493 100.494 100.497 100.5 100.503 100.508 100.513 100.518 100.525 100.533 100.541 100.551 100.563 100.576 100.591 100.61 100.631 100.659 100.693 100.741 100.813 100.941 101.213 101.166 100.893 100.766 100.693 100.646 100.611 100.584 100.562 100.544 100.528 100.515 100.504 100.494 100.485 100.477 100.471 100.465 100.46 100.456 100.452 100.449 100.447 100.445 100.444 100.443 100.443 100.444 100.445 100.447 100.449 100.452 100.456 100.46 100.465 100.471 100.477 100.485 100.494 100.504 100.515 100.528 100.544 100.562 100.584 100.611 100.646 100.693 100.766 100.893 101.166 101.131 100.858 100.731 100.659 100.611 100.576 100.549 100.527 100.509 100.493 100.48 100.469 100.459 100.45 100.442 100.436 100.43 100.425 100.421 100.417 100.414 100.412 100.41 100.409 100.409 100.409 100.409 100.41 100.412 100.414 100.417 100.421 100.425 100.43 100.436 100.442 100.45 100.459 100.469 100.48 100.493 100.509 100.527 100.549 100.576 100.611 100.659 100.731 100.858 101.131 101.104 100.831 100.704 100.631 100.584 100.549 100.522 100.5 100.482 100.466 100.453 100.442 100.432 100.423 100.415 100.409 100.403 100.398 100.394 100.39 100.387 100.385 100.383 100.382 100.381 100.381 100.382 100.383 100.385 100.387 100.39 100.394 100.398 100.403 100.409 100.415 100.423 100.432 100.442 100.453 100.466 100.482 100.5 100.522 100.549 100.584 100.631 100.704 100.831 101.104 101.082 100.809 100.682 100.61 100.562 100.527 100.5 100.478 100.46 100.445 100.431 100.42 100.41 100.401 100.394 100.387 100.381 100.376 100.372 100.368 100.365 100.363 100.361 100.36 100.36 100.36 100.36 100.361 100.363 100.365 100.368 100.372 100.376 100.381 100.387 100.394 100.401 100.41 100.42 100.431 100.445 100.46 100.478 100.5 100.527 100.562 100.61 100.682 100.809 101.082 101.064 100.791 100.664 100.591 100.544 100.509 100.482 100.46 100.442 100.426 100.413 100.402 100.392 100.383 100.375 100.369 100.363 100.358 100.354 100.35 100.347 100.345 100.343 100.342 100.341 100.341 100.342 100.343 100.345 100.347 100.35 100.354 100.358 100.363 100.369 100.375 100.383 100.392 100.402 100.413 100.426 100.442 100.46 100.482 100.509 100.544 100.591 100.664 100.791 101.064 101.048 100.776 100.648 100.576 100.528 100.493 100.466 100.445 100.426 100.411 100.398 100.386 100.376 100.368 100.36 100.353 100.347 100.342 100.338 100.335 100.332 100.329 100.328 100.327 100.326 100.326 100.327 100.328 100.329 100.332 100.335 100.338 100.342 100.347 100.353 100.36 100.368 100.376 100.386 100.398 100.411 100.426 100.445 100.466 100.493 100.528 100.576 100.648 100.776 101.048 101.035 100.762 100.635 100.563 100.515 100.48 100.453 100.431 100.413 100.398 100.385 100.373 100.363 100.354 100.347 100.34 100.334 100.329 100.325 100.321 100.319 100.316 100.315 100.313 100.313 100.313 100.313 100.315 100.316 100.319 100.321 100.325 100.329 100.334 100.34 100.347 100.354 100.363 100.373 100.385 100.398 100.413 100.431 100.453 100.48 100.515 100.563 100.635 100.762 101.035 101.024 100.751 100.624 100.551 100.504 100.469 100.442 100.42 100.402 100.386 100.373 100.362 100.352 100.343 100.335 100.329 100.323 100.318 100.314 100.31 100.307 100.305 100.303 100.302 100.301 100.301 100.302 100.303 100.305 100.307 100.31 100.314 100.318 100.323 100.329 100.335 100.343 100.352 100.362 100.373 100.386 100.402 100.42 100.442 100.469 100.504 100.551 100.624 100.751 101.024 101.014 100.741 100.614 100.541 100.494 100.459 100.432 100.41 100.392 100.376 100.363 100.352 100.342 100.333 100.325 100.319 100.313 100.308 100.304 100.3 100.297 100.295 100.293 100.292 100.291 100.291 100.292 100.293 100.295 100.297 100.3 100.304 100.308 100.313 100.319 100.325 100.333 100.342 100.352 100.363 100.376 100.392 100.41 100.432 100.459 100.494 100.541 100.614 100.741 101.014 101.005 100.732 100.605 100.533 100.485 100.45 100.423 100.401 100.383 100.368 100.354 100.343 100.333 100.324 100.317 100.31 100.304 100.299 100.295 100.291 100.288 100.286 100.284 100.283 100.283 100.283 100.283 100.284 100.286 100.288 100.291 100.295 100.299 100.304 100.31 100.317 100.324 100.333 100.343 100.354 100.368 100.383 100.401 100.423 100.45 100.485 100.533 100.605 100.732 101.005 100.997 100.725 100.597 100.525 100.477 100.442 100.415 100.394 100.375 100.36 100.347 100.335 100.325 100.317 100.309 100.302 100.296 100.291 100.287 100.284 100.281 100.278 100.277 100.276 100.275 100.275 100.276 100.277 100.278 100.281 100.284 100.287 100.291 100.296 100.302 100.309 100.317 100.325 100.335 100.347 100.36 100.375 100.394 100.415 100.442 100.477 100.525 100.597 100.725 100.997 100.991 100.718 100.591 100.518 100.471 100.436 100.409 100.387 100.369 100.353 100.34 100.329 100.319 100.31 100.302 100.296 100.29 100.285 100.281 100.277 100.274 100.272 100.27 100.269 100.268 100.268 100.269 100.27 100.272 100.274 100.277 100.281 100.285 100.29 100.296 100.302 100.31 100.319 100.329 100.34 100.353 100.369 100.387 100.409 100.436 100.471 100.518 100.591 100.718 100.991 100.985 100.712 100.585 100.513 100.465 100.43 100.403 100.381 100.363 100.347 100.334 100.323 100.313 100.304 100.296 100.29 100.284 100.279 100.275 100.271 100.268 100.266 100.264 100.263 100.263 100.263 100.263 100.264 100.266 100.268 100.271 100.275 100.279 100.284 100.29 100.296 100.304 100.313 100.323 100.334 100.347 100.363 100.381 100.403 100.43 100.465 100.513 100.585 100.712 100.985 100.98 100.707 100.58 100.508 100.46 100.425 100.398 100.376 100.358 100.342 100.329 100.318 100.308 100.299 100.291 100.285 100.279 100.274 100.27 100.266 100.263 100.261 100.259 100.258 100.258 100.258 100.258 100.259 100.261 100.263 100.266 100.27 100.274 100.279 100.285 100.291 100.299 100.308 100.318 100.329 100.342 100.358 100.376 100.398 100.425 100.46 100.508 100.58 100.707 100.98 100.976 100.703 100.576 100.503 100.456 100.421 100.394 100.372 100.354 100.338 100.325 100.314 100.304 100.295 100.287 100.281 100.275 100.27 100.265 100.262 100.259 100.257 100.255 100.254 100.253 100.253 100.254 100.255 100.257 100.259 100.262 100.265 100.27 100.275 100.281 100.287 100.295 100.304 100.314 100.325 100.338 100.354 100.372 100.394 100.421 100.456 100.503 100.576 100.703 100.976 100.972 100.699 100.572 100.5 100.452 100.417 100.39 100.368 100.35 100.335 100.321 100.31 100.3 100.291 100.284 100.277 100.271 100.266 100.262 100.258 100.255 100.253 100.251 100.25 100.25 100.25 100.25 100.251 100.253 100.255 100.258 100.262 100.266 100.271 100.277 100.284 100.291 100.3 100.31 100.321 100.335 100.35 100.368 100.39 100.417 100.452 100.5 100.572 100.699 100.972 100.969 100.696 100.569 100.497 100.449 100.414 100.387 100.365 100.347 100.332 100.319 100.307 100.297 100.288 100.281 100.274 100.268 100.263 100.259 100.255 100.253 100.25 100.249 100.247 100.247 100.247 100.247 100.249 100.25 100.253 100.255 100.259 100.263 100.268 100.274 100.281 100.288 100.297 100.307 100.319 100.332 100.347 100.365 100.387 100.414 100.449 100.497 100.569 100.696 100.969 100.967 100.694 100.567 100.494 100.447 100.412 100.385 100.363 100.345 100.329 100.316 100.305 100.295 100.286 100.278 100.272 100.266 100.261 100.257 100.253 100.25 100.248 100.246 100.245 100.245 100.245 100.245 100.246 100.248 100.25 100.253 100.257 100.261 100.266 100.272 100.278 100.286 100.295 100.305 100.316 100.329 100.345 100.363 100.385 100.412 100.447 100.494 100.567 100.694 100.967 100.965 100.692 100.565 100.493 100.445 100.41 100.383 100.361 100.343 100.328 100.315 100.303 100.293 100.284 100.277 100.27 100.264 100.259 100.255 100.251 100.249 100.246 100.244 100.243 100.243 100.243 100.243 100.244 100.246 100.249 100.251 100.255 100.259 100.264 100.27 100.277 100.284 100.293 100.303 100.315 100.328 100.343 100.361 100.383 100.41 100.445 100.493 100.565 100.692 100.965 100.964 100.691 100.564 100.492 100.444 100.409 100.382 100.36 100.342 100.327 100.313 100.302 100.292 100.283 100.276 100.269 100.263 100.258 100.254 100.25 100.247 100.245 100.243 100.242 100.242 100.242 100.242 100.243 100.245 100.247 100.25 100.254 100.258 100.263 100.269 100.276 100.283 100.292 100.302 100.313 100.327 100.342 100.36 100.382 100.409 100.444 100.492 100.564 100.691 100.964 100.963 100.691 100.563 100.491 100.443 100.409 100.381 100.36 100.341 100.326 100.313 100.301 100.291 100.283 100.275 100.268 100.263 100.258 100.253 100.25 100.247 100.245 100.243 100.242 100.241 100.241 100.242 100.243 100.245 100.247 100.25 100.253 100.258 100.263 100.268 100.275 100.283 100.291 100.301 100.313 100.326 100.341 100.36 100.381 100.409 100.443 100.491 100.563 100.691 100.963 100.963 100.691 100.563 100.491 100.443 100.409 100.381 100.36 100.341 100.326 100.313 100.301 100.291 100.283 100.275 100.268 100.263 100.258 100.253 100.25 100.247 100.245 100.243 100.242 100.241 100.241 100.242 100.243 100.245 100.247 100.25 100.253 100.258 100.263 100.268 100.275 100.283 100.291 100.301 100.313 100.326 100.341 100.36 100.381 100.409 100.443 100.491 100.563 100.691 100.963 100.964 100.691 100.564 100.492 100.444 100.409 100.382 100.36 100.342 100.327 100.313 100.302 100.292 100.283 100.276 100.269 100.263 100.258 100.254 100.25 100.247 100.245 100.243 100.242 100.242 100.242 100.242 100.243 100.245 100.247 100.25 100.254 100.258 100.263 100.269 100.276 100.283 100.292 100.302 100.313 100.327 100.342 100.36 100.382 100.409 100.444 100.492 100.564 100.691 100.964 100.965 100.692 100.565 100.493 100.445 100.41 100.383 100.361 100.343 100.328 100.315 100.303 100.293 100.284 100.277 100.27 100.264 100.259 100.255 100.251 100.249 100.246 100.244 100.243 100.243 100.243 100.243 100.244 100.246 100.249 100.251 100.255 100.259 100.264 100.27 100.277 100.284 100.293 100.303 100.315 100.328 100.343 100.361 100.383 100.41 100.445 100.493 100.565 100.692 100.965 100.967 100.694 100.567 100.494 100.447 100.412 100.385 100.363 100.345 100.329 100.316 100.305 100.295 100.286 100.278 100.272 100.266 100.261 100.257 100.253 100.25 100.248 100.246 100.245 100.245 100.245 100.245 100.246 100.248 100.25 100.253 100.257 100.261 100.266 100.272 100.278 100.286 100.295 100.305 100.316 100.329 100.345 100.363 100.385 100.412 100.447 100.494 100.567 100.694 100.967 100.969 100.696 100.569 100.497 100.449 100.414 100.387 100.365 100.347 100.332 100.319 100.307 100.297 100.288 100.281 100.274 100.268 100.263 100.259 100.255 100.253 100.25 100.249 100.247 100.247 100.247 100.247 100.249 100.25 100.253 100.255 100.259 100.263 100.268 100.274 100.281 100.288 100.297 100.307 100.319 100.332 100.347 100.365 100.387 100.414 100.449 100.497 100.569 100.696 100.969 100.972 100.699 100.572 100.5 100.452 100.417 100.39 100.368 100.35 100.335 100.321 100.31 100.3 100.291 100.284 100.277 100.271 100.266 100.262 100.258 100.255 100.253 100.251 100.25 100.25 100.25 100.25 100.251 100.253 100.255 100.258 100.262 100.266 100.271 100.277 100.284 100.291 100.3 100.31 100.321 100.335 100.35 100.368 100.39 100.417 100.452 100.5 100.572 100.699 100.972 100.976 100.703 100.576 100.503 100.456 100.421 100.394 100.372 100.354 100.338 100.325 100.314 100.304 100.295 100.287 100.281 100.275 100.27 100.265 100.262 100.259 100.257 100.255 100.254 100.253 100.253 100.254 100.255 100.257 100.259 100.262 100.265 100.27 100.275 100.281 100.287 100.295 100.304 100.314 100.325 100.338 100.354 100.372 100.394 100.421 100.456 100.503 100.576 100.703 100.976 100.98 100.707 100.58 100.508 100.46 100.425 100.398 100.376 100.358 100.342 100.329 100.318 100.308 100.299 100.291 100.285 100.279 100.274 100.27 100.266 100.263 100.261 100.259 100.258 100.258 100.258 100.258 100.259 100.261 100.263 100.266 100.27 100.274 100.279 100.285 100.291 100.299 100.308 100.318 100.329 100.342 100.358 100.376 100.398 100.425 100.46 100.508 100.58 100.707 100.98 100.985 100.712 100.585 100.513 100.465 100.43 100.403 100.381 100.363 100.347 100.334 100.323 100.313 100.304 100.296 100.29 100.284 100.279 100.275 100.271 100.268 100.266 100.264 100.263 100.263 100.263 100.263 100.264 100.266 100.268 100.271 100.275 100.279 100.284 100.29 100.296 100.304 100.313 100.323 100.334 100.347 100.363 100.381 100.403 100.43 100.465 100.513 100.585 100.712 100.985 100.991 100.718 100.591 100.518 100.471 100.436 100.409 100.387 100.369 100.353 100.34 100.329 100.319 100.31 100.302 100.296 100.29 100.285 100.281 100.277 100.274 100.272 100.27 100.269 100.268 100.268 100.269 100.27 100.272 100.274 100.277 100.281 100.285 100.29 100.296 100.302 100.31 100.319 100.329 100.34 100.353 100.369 100.387 100.409 100.436 100.471 100.518 100.591 100.718 100.991 100.997 100.725 100.597 100.525 100.477 100.442 100.415 100.394 100.375 100.36 100.347 100.335 100.325 100.317 100.309 100.302 100.296 100.291 100.287 100.284 100.281 100.278 100.277 100.276 100.275 100.275 100.276 100.277 100.278 100.281 100.284 100.287 100.291 100.296 100.302 100.309 100.317 100.325 100.335 100.347 100.36 100.375 100.394 100.415 100.442 100.477 100.525 100.597 100.725 100.997 101.005 100.732 100.605 100.533 100.485 100.45 100.423 100.401 100.383 100.368 100.354 100.343 100.333 100.324 100.317 100.31 100.304 100.299 100.295 100.291 100.288 100.286 100.284 100.283 100.283 100.283 100.283 100.284 100.286 100.288 100.291 100.295 100.299 100.304 100.31 100.317 100.324 100.333 100.343 100.354 100.368 100.383 100.401 100.423 100.45 100.485 100.533 100.605 100.732 101.005 101.014 100.741 100.614 100.541 100.494 100.459 100.432 100.41 100.392 100.376 100.363 100.352 100.342 100.333 100.325 100.319 100.313 100.308 100.304 100.3 100.297 100.295 100.293 100.292 100.291 100.291 100.292 100.293 100.295 100.297 100.3 100.304 100.308 100.313 100.319 100.325 100.333 100.342 100.352 100.363 100.376 100.392 100.41 100.432 100.459 100.494 100.541 100.614 100.741 101.014 101.024 100.751 100.624 100.551 100.504 100.469 100.442 100.42 100.402 100.386 100.373 100.362 100.352 100.343 100.335 100.329 100.323 100.318 100.314 100.31 100.307 100.305 100.303 100.302 100.301 100.301 100.302 100.303 100.305 100.307 100.31 100.314 100.318 100.323 100.329 100.335 100.343 100.352 100.362 100.373 100.386 100.402 100.42 100.442 100.469 100.504 100.551 100.624 100.751 101.024 101.035 100.762 100.635 100.563 100.515 100.48 100.453 100.431 100.413 100.398 100.385 100.373 100.363 100.354 100.347 100.34 100.334 100.329 100.325 100.321 100.319 100.316 100.315 100.313 100.313 100.313 100.313 100.315 100.316 100.319 100.321 100.325 100.329 100.334 100.34 100.347 100.354 100.363 100.373 100.385 100.398 100.413 100.431 100.453 100.48 100.515 100.563 100.635 100.762 101.035 101.048 100.776 100.648 100.576 100.528 100.493 100.466 100.445 100.426 100.411 100.398 100.386 100.376 100.368 100.36 100.353 100.347 100.342 100.338 100.335 100.332 100.329 100.328 100.327 100.326 100.326 100.327 100.328 100.329 100.332 100.335 100.338 100.342 100.347 100.353 100.36 100.368 100.376 100.386 100.398 100.411 100.426 100.445 100.466 100.493 100.528 100.576 100.648 100.776 101.048 101.064 100.791 100.664 100.591 100.544 100.509 100.482 100.46 100.442 100.426 100.413 100.402 100.392 100.383 100.375 100.369 100.363 100.358 100.354 100.35 100.347 100.345 100.343 100.342 100.341 100.341 100.342 100.343 100.345 100.347 100.35 100.354 100.358 100.363 100.369 100.375 100.383 100.392 100.402 100.413 100.426 100.442 100.46 100.482 100.509 100.544 100.591 100.664 100.791 101.064 101.082 100.809 100.682 100.61 100.562 100.527 100.5 100.478 100.46 100.445 100.431 100.42 100.41 100.401 100.394 100.387 100.381 100.376 100.372 100.368 100.365 100.363 100.361 100.36 100.36 100.36 100.36 100.361 100.363 100.365 100.368 100.372 100.376 100.381 100.387 100.394 100.401 100.41 100.42 100.431 100.445 100.46 100.478 100.5 100.527 100.562 100.61 100.682 100.809 101.082 101.104 100.831 100.704 100.631 100.584 100.549 100.522 100.5 100.482 100.466 100.453 100.442 100.432 100.423 100.415 100.409 100.403 100.398 100.394 100.39 100.387 100.385 100.383 100.382 100.381 100.381 100.382 100.383 100.385 100.387 100.39 100.394 100.398 100.403 100.409 100.415 100.423 100.432 100.442 100.453 100.466 100.482 100.5 100.522 100.549 100.584 100.631 100.704 100.831 101.104 101.131 100.858 100.731 100.659 100.611 100.576 100.549 100.527 100.509 100.493 100.48 100.469 100.459 100.45 100.442 100.436 100.43 100.425 100.421 100.417 100.414 100.412 100.41 100.409 100.409 100.409 100.409 100.41 100.412 100.414 100.417 100.421 100.425 100.43 100.436 100.442 100.45 100.459 100.469 100.48 100.493 100.509 100.527 100.549 100.576 100.611 100.659 100.731 100.858 101.131 101.166 100.893 100.766 100.693 100.646 100.611 100.584 100.562 100.544 100.528 100.515 100.504 100.494 100.485 100.477 100.471 100.465 100.46 100.456 100.452 100.449 100.447 100.445 100.444 100.443 100.443 100.444 100.445 100.447 100.449 100.452 100.456 100.46 100.465 100.471 100.477 100.485 100.494 100.504 100.515 100.528 100.544 100.562 100.584 100.611 100.646 100.693 100.766 100.893 101.166 101.213 100.941 100.813 100.741 100.693 100.659 100.631 100.61 100.591 100.576 100.563 100.551 100.541 100.533 100.525 100.518 100.513 100.508 100.503 100.5 100.497 100.494 100.493 100.492 100.491 100.491 100.492 100.493 100.494 100.497 100.5 100.503 100.508 100.513 100.518 100.525 100.533 100.541 100.551 100.563 100.576 100.591 100.61 100.631 100.659 100.693 100.741 100.813 100.941 101.213 101.286 101.013 100.886 100.813 100.766 100.731 100.704 100.682 100.664 100.648 100.635 100.624 100.614 100.605 100.597 100.591 100.585 100.58 100.576 100.572 100.569 100.567 100.565 100.564 100.563 100.563 100.564 100.565 100.567 100.569 100.572 100.576 100.58 100.585 100.591 100.597 100.605 100.614 100.624 100.635 100.648 100.664 100.682 100.704 100.731 100.766 100.813 100.886 101.013 101.286 101.413 101.14 101.013 100.941 100.893 100.858 100.831 100.809 100.791 100.776 100.762 100.751 100.741 100.732 100.725 100.718 100.712 100.707 100.703 100.699 100.696 100.694 100.692 100.691 100.691 100.691 100.691 100.692 100.694 100.696 100.699 100.703 100.707 100.712 100.718 100.725 100.732 100.741 100.751 100.762 100.776 100.791 100.809 100.831 100.858 100.893 100.941 101.013 101.14 101.413 101.686 101.413 101.286 101.213 101.166 101.131 101.104 101.082 101.064 101.048 101.035 101.024 101.014 101.005 100.997 100.991 100.985 100.98 100.976 100.972 100.969 100.967 100.965 100.964 100.963 100.963 100.964 100.965 100.967 100.969 100.972 100.976 100.98 100.985 100.991 100.997 101.005 101.014 101.024 101.035 101.048 101.064 101.082 