<?xml version="1.0"?>
<VTKFile type="ImageData" version="0.1" byte_order="LittleEndian">
  <ImageData WholeExtent="0 49 0 49 0 49" Origin="0 0 0" Spacing="1 1 1">
    <Piece Extent="0 49 0 49 0 49">
      <PointData Scalars="temperature">
        <DataArray type="Float64" Name="temperature" format="ascii">
100 100 100 100 100 100 100 100 100 100 100 100 100 100 100 100 100 100 100 100 100 100 100 100 100 100 100 100 100 100 100 100 100 100 100 100 100 100 100 100 100 100 100 100 100 100 100 100 100 100 100 100 100 100 100 100 100 100 100 100 100 100 100 100 100 100 100 100 100 100 100 100 100 100 100 100 100 100 100 100 100 100 100 100 100 100 100 100 100 100 100 100 100 100 100 100 100 100 100 100 100 100 100 100 100 100 100 100 100 100 100 100 100 100 100 100 100 100 100 100 100 100 100 100 100 100 100 100 100 100 100 100 100 100 100 100 100 100 100 100 100 100 100 100 100 100 100 100 100 100 100 100 100 100 100 100 100 100 100 100 100 100 100 100 100 100 100 100 100 100 100 100 100 100 100 100 100 100 100 100 100 100 100 100 100 100 100 100 100 100 100 100 100 100 100 100 100 100 100 100 100 100 100 100 100 100 100 100 100 100 100 100 100 100 100 100 100 100 100 100 100 100 100 100 100 100 100 100 100 100 100 100 100 100 100 100 100 100 100 100 100 100 100 100 100 100 100 100 100 100 100 100 100 100 100 100 100 100 100 100 100 100 100 100 100 100 100 100 100 100 100 100 100 100 100 100 100 100 100 100 100 100 100 100 100 100 100 100 100 100 100 100 100 100 100 100 100 100 100 100 100 100 100 100 100 100 100 100 100 100 100 100 100 100 100 100 100 100 100 100 100 100 100 100 100 100 100 100 100 100 100 100 100 100 100 100 100 100 100 100 100 100 100 100 100 100 100 100 100 100 100 100 100 100 100 100 100 100 100 100 100 100 100 100 100 100 100 100 100 100 100 100 100 100 100 100 100 100 100 100 100 100 100 100 100 100 100 100 100 100 100 100 100 100 100 100 100 100 100 100 100 100 100 100 100 100 100 100 100 100 100 100 100 100 100 100 100 100 100 100 100 100 100 100 100 100 100 100 100 100 100 100 100 100 100 100 100 100 100 100 100 100 100 100 100 100 100 100 100 100 100 100 100 100 100 100 100 100 100 100 100 100 100 100 100 100 100 100 100 100 100 100 100 100 100 100 100 100 100 100 100 100 100 100 100 100 100 100 100 100 100 100 100 100 100 100 100 100 100 100 100 100 100 100 100 100 100 100 100 100 100 100 100 100 100 100 100 100 100 100 100 100 100 100 100 100 100 100 100 100 100 100 100 100 100 100 100 100 100 100 100 100 100 100 100 100 100 100 100 100 100 100 100 100 100 100 100 100 100 100 100 100 100 100 100 100 100 100 100 100 100 100 100 100 100 100 100 100 100 100 100 100 100 100 100 100 100 100 100 100 100 100 100 100 100 100 100 100 100 100 100 100 100 100 100 100 100 100 100 100 100 100 100 100 100 100 100 100 100 100 100 100 100 100 100 100 100 100 100 100 100 100 100 100 100 100 100 100 100 100 100 100 100 100 100 100 100 100 100 100 100 100 100 100 100 100 100 100 100 100 100 100 100 100 100 100 100 100 100 100 100 100 100 100 100 100 100 100 100 100 100 100 100 100 100 100 100 100 100 100 100 100 100 100 100 100 100 100 100 100 100 100 100 100 100 100 100 100 100 100 100 100 100 100 100 100 100 100 100 100 100 100 100 100 100 100 100 100 100 100 100 100 100 100 100 100 100 100 100 100 100 100 100 100 100 100 100 100 100 100 100 100 100 100 100 100 100 100 100 100 100 100 100 100 100 100 100 100 100 100 100 100 100 100 100 100 100 100 100 100 100 100 100 100 100 100 100 100 100 100 100 100 100 100 100 100 100 100 100 100 100 100 100 100 100 100 100 100 100 100 100 100 100 100 100 100 100 100 100 100 100 100 100 100 100 100 100 100 100 100 100 100 100 100 100 100 100 100 100 100 100 100 100 100 100 100 100 100 100 100 100 100 100 100 100 100 100 100 100 100 100 100 100 100 100 100 100 100 100 100 100 100 100 100 100 100 100 100 100 100 100 100 100 100 100 100 100 100 100 100 100 100 100 100 100 100 100 100 100 100 100 100 100 100 100 100 100 100 100 100 100 100 100 100 100 100 100 100 100 100 100 100 100 100 100 100 100 100 100 100 100 100 100 100 100 100 100 100 100 100 100 100 100 100 100 100 100 100 100 100 100 100 100 100 100 100 100 100 100 100 100 100 100 100 100 100 100 100 100 100 100 100 100 100 100 100 100 100 100 100 100 100 100 100 100 100 100 100 100 100 100 100 100 100 100 100 100 100 100 100 100 100 100 100 100 100 100 100 100 100 100 100 100 100 100 100 100 100 100 100 100 100 100 100 100 100 100 100 100 100 100 100 100 100 100 100 100 100 100 100 100 100 100 100 100 100 100 100 100 100 100 100 100 100 100 100 100 100 100 100 100 100 100 100 100 100 100 100 100 100 100 100 100 100 100 100 100 100 100 100 100 100 100 100 100 100 100 100 100 100 100 100 100 100 100 100 100 100 100 100 100 100 100 100 100 100 100 100 100 100 100 100 100 100 100 100 100 100 100 100 100 100 100 100 100 100 100 100 100 100 100 100 100 100 100 100 100 100 100 100 100 100 100 100 100 100 100 100 100 100 100 100 100 100 100 100 100 100 100 100 100 100 100 100 100 100 100 100 100 100 100 100 100 100 100 100 100 100 100 100 100 100 100 100 100 100 100 100 100 100 100 100 100 100 100 100 100 100 100 100 100 100 100 100 100 100 100 100 100 100 100 100 100 100 100 100 100 100 100 100 100 100 100 100 100 100 100 100 100 100 100 100 100 100 100 100 100 100 100 100 100 100 100 100 100 100 100 100 100 100 100 100 100 100 100 100 100 100 100 100 100 100 100 100 100 100 100 100 100 100 100 100 100 100 100 100 100 100 100 100 100 100 100 100 100 100 100 100 100 100 100 100 100 100 100 100 100 100 100 100 100 100 100 100 100 100 100 100 100 100 100 100 100 100 100 100 100 100 100 100 100 100 100 100 100 100 100 100 100 100 100 100 100 100 100 100 100 100 100 100 100 100 100 100 100 100 100 100 100 100 100 100 100 100 100 100 100 100 100 100 100 100 100 100 100 100 100 100 100 100 100 100 100 100 100 100 100 100 100 100 100 100 100 100 100 100 100 100 100 100 100 100 100 100 100 100 100 100 100 100 100 100 100 100 100 100 100 100 100 100 100 100 100 100 100 100 100 100 100 100 100 100 100 100 100 100 100 100 100 100 100 100 100 100 100 100 100 100 100 100 100 100 100 100 100 100 100 100 100 100 100 100 100 100 100 100 100 100 100 100 100 100 100 100 100 100 100 100 100 100 100 100 100 100 100 100 100 100 100 100 100 100 100 100 100 100 100 100 100 100 100 100 100 100 100 100 100 100 100 100 100 100 100 100 100 100 100 100 100 100 100 100 100 100 100 100 100 100 100 100 100 100 100 100 100 100 100 100 100 100 100 100 100 100 100 100 100 100 100 100 100 100 100 100 100 100 100 100 100 100 100 100 100 100 100 100 100 100 100 100 100 100 100 100 100 100 100 100 100 100 100 100 100 100 100 100 100 100 100 100 100 100 100 100 100 100 100 100 100 100 100 100 100 100 100 100 100 100 100 100 100 100 100 100 100 100 100 100 100 100 100 100 100 100 100 100 100 100 100 100 100 100 100 100 100 100 100 100 100 100 100 100 100 100 100 100 100 100 100 100 100 100 100 100 100 100 100 100 100 100 100 100 100 100 100 100 100 100 100 100 100 100 100 100 100 100 100 100 100 100 100 100 100 100 100 100 100 100 100 100 100 100 100 100 100 100 100 100 100 100 100 100 100 100 100 100 100 100 100 100 100 100 100 100 100 100 100 100 100 100 100 100 100 100 100 100 100 100 100 100 100 100 100 100 100 100 100 100 100 100 100 100 100 100 100 100 100 100 100 100 100 100 100 100 100 100 100 100 100 100 100 100 100 100 100 100 100 100 100 100 100 100 100 100 100 100 100 100 100 100 100 100 100 100 100 100 100 100 100 100 100 100 100 100 100 100 100 100 100 100 100 100 100 100 100 100 100 100 100 100 100 100 100 100 100 100 100 100 100 100 100 100 100 100 100 100 100 100 100 100 100 100 100 100 100 100 100 100 100 100 100 100 100 100 100 100 100 100 100 100 100 100 100 100 100 100 100 100 100 100 100 100 100 100 100 100 100 100 100 100 100 100 100 100 100 100 100 100 100 100 100 100 100 100 100 100 100 100 100 100 100 100 100 100 100 100 100 100 100 100 100 100 100 100 100 100 100 100 100 100 100 100 100 100 100 100 100 100 100 100 100 100 100 100 100 100 100 100 100 100 100 100 100 100 100 100 100 100 100 100 100 100 100 100 100 100 100 100 100 100 100 100 100 100 100 100 100 100 100 100 100 100 100 100 100 100 100 100 100 100 100 100 100 100 100 100 100 100 100 100 100 100 100 100 100 100 100 100 100 100 100 100 100 100 100 100 100 100 100 100 100 100 100 100 100 100 100 100 100 100 100 100 100 100 100 100 100 100 100 100 100 100 100 100 100 100 100 100 100 100 100 100 100 100 100 100 100 100 100 100 100 100 100 100 100 100 100 100 100 100 100 100 100 100 100 100 100 100 100 100 100 100 100 100 100 100 100 100 100 100 100 100 100 100 100 100 100 100 100 100 100 100 100 100 100 100 100 100 100 100 100 100 100 100 100 100 100 100 100 100 100 100 100 100 100 100 100 100 100 100 100 100 100 100 100 100 100 100 100 100 100 100 100 100 100 100 100 100 100 100 100 100 100 100 100 100 100 100 100 100 100 100 100 100 100 100 100 100 100 100 100 100 100 100 100 100 100 100 100 100 100 100 100 100 100 100 100 100 100 100 100 100 100 100 100 100 100 100 100 100 100 100 100 100 100 100 100 100 100 100 100 100 100 100 100 100 100 100 100 100 100 100 100 100 100 100 100 100 100 100 100 100 100 100 100 100 100 100 100 100 100 100 100 100 100 100 100 100 100 100 100 100 100 100 100 100 100 100 100 100 100 100 100 100 100 100 100 100 100 100 100 100 100 100 100 100 100 100 100 100 100 100 100 100 100 100 100 100 100 100 100 100 100 100 100 100 100 100 100 100 100 100 100 100 100 100 100 100 100 100 100 100 100 100 100 100 100 100 100 100 100 100 100 100 100 100 100 100 100 100 100 100 100 100 100 100 100 100 100 100 100 100 100 100 100 100 100 100 100 100 100 100 100 100 100 100 100 100 100 100 100 100 100 100 100 100 100 100 100 100 100 100 100 100 100 100 100 100 100 100 100 100 100 100 100 100 100 100 100 100 100 100 100 100 100 100 100 100 100 100 100 100 100 100 100 100 100 100 100 100 100 100 100 100 100 100 100 100 100 100 100 100 100 100 100 100 100 100 100 100 100 100 100 100 100 100 100 100 100 100 100 100 100 100 100 100 100 100 100 100 100 100 100 100 100 100 100 100 100 100 100 100 100 100 100 100 100 100 100 100 100 100 100 100 100 100 100 100 100 100 100 100 100 100 100 100 100 100 100 100 100 100 100 100 100 100 100 100 100 100 100 100 100 100 100 100 100 100 100 100 100 100 100 100 100 100 100 100 100 100 100 100 100 100 100 100 100 100 100 100 101.218 100.942 100.818 100.751 100.711 100.685 100.666 100.653 100.643 100.635 100.63 100.625 100.622 100.619 100.617 100.616 100.614 100.613 100.612 100.612 100.611 100.611 100.611 100.611 100.611 100.611 100.611 100.611 100.611 100.611 100.612 100.612 100.613 100.614 100.616 100.617 100.619 100.622 100.625 100.63 100.635 100.643 100.653 100.666 100.685 100.711 100.751 100.818 100.942 101.218 100.942 100.666 100.542 100.475 100.435 100.409 100.39 100.377 100.367 100.359 100.354 100.349 100.346 100.343 100.341 100.34 100.338 100.337 100.336 100.336 100.335 100.335 100.335 100.335 100.335 100.335 100.335 100.335 100.335 100.335 100.336 100.336 100.337 100.338 100.34 100.341 100.343 100.346 100.349 100.354 100.359 100.367 100.377 100.39 100.409 100.435 100.475 100.542 100.666 100.942 100.818 100.542 100.418 100.351 100.311 100.285 100.266 100.253 100.243 100.235 100.23 100.225 100.222 100.219 100.217 100.216 100.214 100.213 100.212 100.212 100.211 100.211 100.211 100.211 100.211 100.211 100.211 100.211 100.211 100.211 100.212 100.212 100.213 100.214 100.216 100.217 100.219 100.222 100.225 100.23 100.235 100.243 100.253 100.266 100.285 100.311 100.351 100.418 100.542 100.818 100.751 100.475 100.351 100.285 100.245 100.218 100.2 100.186 100.177 100.169 100.163 100.159 100.156 100.153 100.151 100.149 100.148 100.147 100.146 100.146 100.145 100.145 100.145 100.144 100.144 100.144 100.144 100.145 100.145 100.145 100.146 100.146 100.147 100.148 100.149 100.151 100.153 100.156 100.159 100.163 100.169 100.177 100.186 100.2 100.218 100.245 100.285 100.351 100.475 100.751 100.711 100.435 100.311 100.245 100.205 100.178 100.16 100.146 100.136 100.129 100.123 100.119 100.115 100.113 100.111 100.109 100.108 100.107 100.106 100.105 100.105 100.105 100.104 100.104 100.104 100.104 100.104 100.104 100.105 100.105 100.105 100.106 100.107 100.108 100.109 100.111 100.113 100.115 100.119 100.123 100.129 100.136 100.146 100.16 100.178 100.205 100.245 100.311 100.435 100.711 100.685 100.409 100.285 100.218 100.178 100.152 100.133 100.12 100.11 100.102 100.097 100.092 100.089 100.086 100.084 100.083 100.081 100.08 100.079 100.079 100.078 100.078 100.078 100.078 100.078 100.078 100.078 100.078 100.078 100.078 100.079 100.079 100.08 100.081 100.083 100.084 100.086 100.089 100.092 100.097 100.102 100.11 100.12 100.133 100.152 100.178 100.218 100.285 100.409 100.685 100.666 100.39 100.266 100.2 100.16 100.133 100.115 100.101 100.091 100.084 100.078 100.074 100.07 100.068 100.066 100.064 100.063 100.062 100.061 100.06 100.06 100.06 100.059 100.059 100.059 100.059 100.059 100.059 100.06 100.06 100.06 100.061 100.062 100.063 100.064 100.066 100.068 100.07 100.074 100.078 100.084 100.091 100.101 100.115 100.133 100.16 100.2 100.266 100.39 100.666 100.653 100.377 100.253 100.186 100.146 100.12 100.101 100.088 100.078 100.071 100.065 100.06 100.057 100.054 100.052 100.051 100.049 100.048 100.048 100.047 100.047 100.046 100.046 100.046 100.046 100.046 100.046 100.046 100.046 100.047 100.047 100.048 100.048 100.049 100.051 100.052 100.054 100.057 100.06 100.065 100.071 100.078 100.088 100.101 100.12 100.146 100.186 100.253 100.377 100.653 100.643 100.367 100.243 100.177 100.136 100.11 100.091 100.078 100.068 100.061 100.055 100.051 100.047 100.045 100.042 100.041 100.04 100.038 100.038 100.037 100.037 100.036 100.036 100.036 100.036 100.036 100.036 100.036 100.036 100.037 100.037 100.038 100.038 100.04 100.041 100.042 100.045 100.047 100.051 100.055 100.061 100.068 100.078 100.091 100.11 100.136 100.177 100.243 100.367 100.643 100.635 100.359 100.235 100.169 100.129 100.102 100.084 100.071 100.061 100.053 100.048 100.043 100.04 100.037 100.035 100.033 100.032 100.031 100.03 100.03 100.029 100.029 100.029 100.028 100.028 100.028 100.028 100.029 100.029 100.029 100.03 100.03 100.031 100.032 100.033 100.035 100.037 100.04 100.043 100.048 100.053 100.061 100.071 100.084 100.102 100.129 100.169 100.235 100.359 100.635 100.63 100.354 100.23 100.163 100.123 100.097 100.078 100.065 100.055 100.048 100.042 100.037 100.034 100.031 100.029 100.028 100.026 100.025 100.025 100.024 100.023 100.023 100.023 100.023 100.023 100.023 100.023 100.023 100.023 100.023 100.024 100.025 100.025 100.026 100.028 100.029 100.031 100.034 100.037 100.042 100.048 100.055 100.065 100.078 100.097 100.123 100.163 100.23 100.354 100.63 100.625 100.349 100.225 100.159 100.119 100.092 100.074 100.06 100.051 100.043 100.037 100.033 100.03 100.027 100.025 100.023 100.022 100.021 100.02 100.02 100.019 100.019 100.018 100.018 100.018 100.018 100.018 100.018 100.019 100.019 100.02 100.02 100.021 100.022 100.023 100.025 100.027 100.03 100.033 100.037 100.043 100.051 100.06 100.074 100.092 100.119 100.159 100.225 100.349 100.625 100.622 100.346 100.222 100.156 100.115 100.089 100.07 100.057 100.047 100.04 100.034 100.03 100.026 100.024 100.022 100.02 100.019 100.018 100.017 100.016 100.016 100.015 100.015 100.015 100.015 100.015 100.015 100.015 100.015 100.016 100.016 100.017 100.018 100.019 100.02 100.022 100.024 100.026 100.03 100.034 100.04 100.047 100.057 100.07 100.089 100.115 100.156 100.222 100.346 100.622 100.619 100.343 100.219 100.153 100.113 100.086 100.068 100.054 100.045 100.037 100.031 100.027 100.024 100.021 100.019 100.017 100.016 100.015 100.014 100.014 100.013 100.013 100.012 100.012 100.012 100.012 100.012 100.012 100.013 100.013 100.014 100.014 100.015 100.016 100.017 100.019 100.021 100.024 100.027 100.031 100.037 100.045 100.054 100.068 100.086 100.113 100.153 100.219 100.343 100.619 100.617 100.341 100.217 100.151 100.111 100.084 100.066 100.052 100.042 100.035 100.029 100.025 100.022 100.019 100.017 100.015 100.014 100.013 100.012 100.011 100.011 100.011 100.01 100.01 100.01 100.01 100.01 100.01 100.011 100.011 100.011 100.012 100.013 100.014 100.015 100.017 100.019 100.022 100.025 100.029 100.035 100.042 100.052 100.066 100.084 100.111 100.151 100.217 100.341 100.617 100.616 100.34 100.216 100.149 100.109 100.083 100.064 100.051 100.041 100.033 100.028 100.023 100.02 100.017 100.015 100.014 100.012 100.011 100.01 100.01 100.009 100.009 100.009 100.009 100.008 100.008 100.009 100.009 100.009 100.009 100.01 100.01 100.011 100.012 100.014 100.015 100.017 100.02 100.023 100.028 100.033 100.041 100.051 100.064 100.083 100.109 100.149 100.216 100.34 100.616 100.614 100.338 100.214 100.148 100.108 100.081 100.063 100.049 100.04 100.032 100.026 100.022 100.019 100.016 100.014 100.012 100.011 100.01 100.009 100.009 100.008 100.008 100.007 100.007 100.007 100.007 100.007 100.007 100.008 100.008 100.009 100.009 100.01 100.011 100.012 100.014 100.016 100.019 100.022 100.026 100.032 100.04 100.049 100.063 100.081 100.108 100.148 100.214 100.338 100.614 100.613 100.337 100.213 100.147 100.107 100.08 100.062 100.048 100.038 100.031 100.025 100.021 100.018 100.015 100.013 100.011 100.01 100.009 100.008 100.007 100.007 100.007 100.006 100.006 100.006 100.006 100.006 100.006 100.007 100.007 100.007 100.008 100.009 100.01 100.011 100.013 100.015 100.018 100.021 100.025 100.031 100.038 100.048 100.062 100.08 100.107 100.147 100.213 100.337 100.613 100.612 100.336 100.212 100.146 100.106 100.079 100.061 100.048 100.038 100.03 100.025 100.02 100.017 100.014 100.012 100.01 100.009 100.008 100.007 100.007 100.006 100.006 100.006 100.005 100.005 100.005 100.005 100.006 100.006 100.006 100.007 100.007 100.008 100.009 100.01 100.012 100.014 100.017 100.02 100.025 100.03 100.038 100.048 100.061 100.079 100.106 100.146 100.212 100.336 100.612 100.612 100.336 100.212 100.146 100.105 100.079 100.06 100.047 100.037 100.03 100.024 100.02 100.016 100.014 100.011 100.01 100.009 100.007 100.007 100.006 100.006 100.005 100.005 100.005 100.005 100.005 100.005 100.005 100.005 100.006 100.006 100.007 100.007 100.009 100.01 100.011 100.014 100.016 100.02 100.024 100.03 100.037 100.047 100.06 100.079 100.105 100.146 100.212 100.336 100.612 100.611 100.335 100.211 100.145 100.105 100.078 100.06 100.047 100.037 100.029 100.023 100.019 100.016 100.013 100.011 100.009 100.008 100.007 100.006 100.006 100.005 100.005 100.005 100.004 100.004 100.004 100.004 100.005 100.005 100.005 100.006 100.006 100.007 100.008 100.009 100.011 100.013 100.016 100.019 100.023 100.029 100.037 100.047 100.06 100.078 100.105 100.145 100.211 100.335 100.611 100.611 100.335 100.211 100.145 100.105 100.078 100.06 100.046 100.036 100.029 100.023 100.019 100.015 100.013 100.011 100.009 100.008 100.007 100.006 100.005 100.005 100.004 100.004 100.004 100.004 100.004 100.004 100.004 100.004 100.005 100.005 100.006 100.007 100.008 100.009 100.011 100.013 100.015 100.019 100.023 100.029 100.036 100.046 100.06 100.078 100.105 100.145 100.211 100.335 100.611 100.611 100.335 100.211 100.145 100.104 100.078 100.059 100.046 100.036 100.029 100.023 100.018 100.015 100.012 100.01 100.009 100.007 100.006 100.006 100.005 100.005 100.004 100.004 100.004 100.004 100.004 100.004 100.004 100.004 100.005 100.005 100.006 100.006 100.007 100.009 100.01 100.012 100.015 100.018 100.023 100.029 100.036 100.046 100.059 100.078 100.104 100.145 100.211 100.335 100.611 100.611 100.335 100.211 100.144 100.104 100.078 100.059 100.046 100.036 100.028 100.023 100.018 100.015 100.012 100.01 100.009 100.007 100.006 100.005 100.005 100.004 100.004 100.004 100.004 100.004 100.004 100.004 100.004 100.004 100.004 100.005 100.005 100.006 100.007 100.009 100.01 100.012 100.015 100.018 100.023 100.028 100.036 100.046 100.059 100.078 100.104 100.144 100.211 100.335 100.611 100.611 100.335 100.211 100.144 100.104 100.078 100.059 100.046 100.036 100.028 100.023 100.018 100.015 100.012 100.01 100.008 100.007 100.006 100.005 100.005 100.004 100.004 100.004 100.004 100.003 100.003 100.004 100.004 100.004 100.004 100.005 100.005 100.006 100.007 100.008 100.01 100.012 100.015 100.018 100.023 100.028 100.036 100.046 100.059 100.078 100.104 100.144 100.211 100.335 100.611 100.611 100.335 100.211 100.144 100.104 100.078 100.059 100.046 100.036 100.028 100.023 100.018 100.015 100.012 100.01 100.008 100.007 100.006 100.005 100.005 100.004 100.004 100.004 100.004 100.003 100.003 100.004 100.004 100.004 100.004 100.005 100.005 100.006 100.007 100.008 100.01 100.012 100.015 100.018 100.023 100.028 100.036 100.046 100.059 100.078 100.104 100.144 100.211 100.335 100.611 100.611 100.335 100.211 100.144 100.104 100.078 100.059 100.046 100.036 100.028 100.023 100.018 100.015 100.012 100.01 100.009 100.007 100.006 100.005 100.005 100.004 100.004 100.004 100.004 100.004 100.004 100.004 100.004 100.004 100.004 100.005 100.005 100.006 100.007 100.009 100.01 100.012 100.015 100.018 100.023 100.028 100.036 100.046 100.059 100.078 100.104 100.144 100.211 100.335 100.611 100.611 100.335 100.211 100.145 100.104 100.078 100.059 100.046 100.036 100.029 100.023 100.018 100.015 100.012 100.01 100.009 100.007 100.006 100.006 100.005 100.005 100.004 100.004 100.004 100.004 100.004 100.004 100.004 100.004 100.005 100.005 100.006 100.006 100.007 100.009 100.01 100.012 100.015 100.018 100.023 100.029 100.036 100.046 100.059 100.078 100.104 100.145 100.211 100.335 100.611 100.611 100.335 100.211 100.145 100.105 100.078 100.06 100.046 100.036 100.029 100.023 100.019 100.015 100.013 100.011 100.009 100.008 100.007 100.006 100.005 100.005 100.004 100.004 100.004 100.004 100.004 100.004 100.004 100.004 100.005 100.005 100.006 100.007 100.008 100.009 100.011 100.013 100.015 100.019 100.023 100.029 100.036 100.046 100.06 100.078 100.105 100.145 100.211 100.335 100.611 100.611 100.335 100.211 100.145 100.105 100.078 100.06 100.047 100.037 100.029 100.023 100.019 100.016 100.013 100.011 100.009 100.008 100.007 100.006 100.006 100.005 100.005 100.005 100.004 100.004 100.004 100.004 100.005 100.005 100.005 100.006 100.006 100.007 100.008 100.009 100.011 100.013 100.016 100.019 100.023 100.029 100.037 100.047 100.06 100.078 100.105 100.145 100.211 100.335 100.611 100.612 100.336 100.212 100.146 100.105 100.079 100.06 100.047 100.037 100.03 100.024 100.02 100.016 100.014 100.011 100.01 100.009 100.007 100.007 100.006 100.006 100.005 100.005 100.005 100.005 100.005 100.005 100.005 100.005 100.006 100.006 100.007 100.007 100.009 100.01 100.011 100.014 100.016 100.02 100.024 100.03 100.037 100.047 100.06 100.079 100.105 100.146 100.212 100.336 100.612 100.612 100.336 100.212 100.146 100.106 100.079 100.061 100.048 100.038 100.03 100.025 100.02 100.017 100.014 100.012 100.01 100.009 100.008 100.007 100.007 100.006 100.006 100.006 100.005 100.005 100.005 100.005 100.006 100.006 100.006 100.007 100.007 100.008 100.009 100.01 100.012 100.014 100.017 100.02 100.025 100.03 100.038 100.048 100.061 100.079 100.106 100.146 100.212 100.336 100.612 100.613 100.337 100.213 100.147 100.107 100.08 100.062 100.048 100.038 100.031 100.025 100.021 100.018 100.015 100.013 100.011 100.01 100.009 100.008 100.007 100.007 100.007 100.006 100.006 100.006 100.006 100.006 100.006 100.007 100.007 100.007 100.008 100.009 100.01 100.011 100.013 100.015 100.018 100.021 100.025 100.031 100.038 100.048 100.062 100.08 100.107 100.147 100.213 100.337 100.613 100.614 100.338 100.214 100.148 100.108 100.081 100.063 100.049 100.04 100.032 100.026 100.022 100.019 100.016 100.014 100.012 100.011 100.01 100.009 100.009 100.008 100.008 100.007 100.007 100.007 100.007 100.007 100.007 100.008 100.008 100.009 100.009 100.01 100.011 100.012 100.014 100.016 100.019 100.022 100.026 100.032 100.04 100.049 100.063 100.081 100.108 100.148 100.214 100.338 100.614 100.616 100.34 100.216 100.149 100.109 100.083 100.064 100.051 100.041 100.033 100.028 100.023 100.02 100.017 100.015 100.014 100.012 100.011 100.01 100.01 100.009 100.009 100.009 100.009 100.008 100.008 100.009 100.009 100.009 100.009 100.01 100.01 100.011 100.012 100.014 100.015 100.017 100.02 100.023 100.028 100.033 100.041 100.051 100.064 100.083 100.109 100.149 100.216 100.34 100.616 100.617 100.341 100.217 100.151 100.111 100.084 100.066 100.052 100.042 100.035 100.029 100.025 100.022 100.019 100.017 100.015 100.014 100.013 100.012 100.011 100.011 100.011 100.01 100.01 100.01 100.01 100.01 100.01 100.011 100.011 100.011 100.012 100.013 100.014 100.015 100.017 100.019 100.022 100.025 100.029 100.035 100.042 100.052 100.066 100.084 100.111 100.151 100.217 100.341 100.617 100.619 100.343 100.219 100.153 100.113 100.086 100.068 100.054 100.045 100.037 100.031 100.027 100.024 100.021 100.019 100.017 100.016 100.015 100.014 100.014 100.013 100.013 100.012 100.012 100.012 100.012 100.012 100.012 100.013 100.013 100.014 100.014 100.015 100.016 100.017 100.019 100.021 100.024 100.027 100.031 100.037 100.045 100.054 100.068 100.086 100.113 100.153 100.219 100.343 100.619 100.622 100.346 100.222 100.156 100.115 100.089 100.07 100.057 100.047 100.04 100.034 100.03 100.026 100.024 100.022 100.02 100.019 100.018 100.017 100.016 100.016 100.015 100.015 100.015 100.015 100.015 100.015 100.015 100.015 100.016 100.016 100.017 100.018 100.019 100.02 100.022 100.024 100.026 100.03 100.034 100.04 100.047 100.057 100.07 100.089 100.115 100.156 100.222 100.346 100.622 100.625 100.349 100.225 100.159 100.119 100.092 100.074 100.06 100.051 100.043 100.037 100.033 100.03 100.027 100.025 100.023 100.022 100.021 100.02 100.02 100.019 100.019 100.018 100.018 100.018 100.018 100.018 100.018 100.019 100.019 100.02 100.02 100.021 100.022 100.023 100.025 100.027 100.03 100.033 100.037 100.043 100.051 100.06 100.074 100.092 100.119 100.159 100.225 100.349 100.625 100.63 100.354 100.23 100.163 100.123 100.097 100.078 100.065 100.055 100.048 100.042 100.037 100.034 100.031 100.029 100.028 100.026 100.025 100.025 100.024 100.023 100.023 100.023 100.023 100.023 100.023 100.023 100.023 100.023 100.023 100.024 100.025 100.025 100.026 100.028 100.029 100.031 100.034 100.037 100.042 100.048 100.055 100.065 100.078 100.097 100.123 100.163 100.23 100.354 100.63 100.635 100.359 100.235 100.169 100.129 100.102 100.084 100.071 100.061 100.053 100.048 100.043 100.04 100.037 100.035 100.033 100.032 100.031 100.03 100.03 100.029 100.029 100.029 100.028 100.028 100.028 100.028 100.029 100.029 100.029 100.03 100.03 100.031 100.032 100.033 100.035 100.037 100.04 100.043 100.048 100.053 100.061 100.071 100.084 100.102 100.129 100.169 100.235 100.359 100.635 100.643 100.367 100.243 100.177 100.136 100.11 100.091 100.078 100.068 100.061 100.055 100.051 100.047 100.045 100.042 100.041 100.04 100.038 100.038 100.037 100.037 100.036 100.036 100.036 100.036 100.036 100.036 100.036 100.036 100.037 100.037 100.038 100.038 100.04 100.041 100.042 100.045 100.047 100.051 100.055 100.061 100.068 100.078 100.091 100.11 100.136 100.177 100.243 100.367 100.643 100.653 100.377 100.253 100.186 100.146 100.12 100.101 100.088 100.078 100.071 100.065 100.06 100.057 100.054 100.052 100.051 100.049 100.048 100.048 100.047 100.047 100.046 100.046 100.046 100.046 100.046 100.046 100.046 100.046 100.047 100.047 100.048 100.048 100.049 100.051 100.052 100.054 100.057 100.06 100.065 100.071 100.078 100.088 100.101 100.12 100.146 100.186 100.253 100.377 100.653 100.666 100.39 100.266 100.2 100.16 100.133 100.115 100.101 100.091 100.084 100.078 100.074 100.07 100.068 100.066 100.064 100.063 100.062 100.061 100.06 100.06 100.06 100.059 100.059 100.059 100.059 100.059 100.059 100.06 100.06 100.06 100.061 100.062 100.063 100.064 100.066 100.068 100.07 100.074 100.078 100.084 100.091 100.101 100.115 100.133 100.16 100.2 100.266 100.39 100.666 100.685 100.409 100.285 100.218 100.178 100.152 100.133 100.12 100.11 100.102 100.097 100.092 100.089 100.086 100.084 100.083 100.081 100.08 100.079 100.079 100.078 100.078 100.078 100.078 100.078 100.078 100.078 100.078 100.078 100.078 100.079 100.079 100.08 100.081 100.083 100.084 100.086 100.089 100.092 100.097 100.102 100.11 100.12 100.133 100.152 100.178 100.218 100.285 100.409 100.685 100.711 100.435 100.311 100.245 100.205 100.178 100.16 100.146 100.136 100.129 100.123 100.119 100.115 100.113 100.111 100.109 100.108 100.107 100.106 100.105 100.105 100.105 100.104 100.104 100.104 100.104 100.104 100.104 100.105 100.105 100.105 100.106 100.107 100.108 100.109 100.111 100.113 100.115 100.119 100.123 100.129 100.136 100.146 100.16 100.178 100.205 100.245 100.311 100.435 100.711 100.751 100.475 100.351 100.285 100.245 100.218 100.2 100.186 100.177 100.169 100.163 100.159 100.156 100.153 100.151 100.149 100.148 100.147 100.146 100.146 100.145 100.145 100.145 100.144 100.144 100.144 100.144 100.145 100.145 100.145 100.146 100.146 100.147 100.148 100.149 100.151 100.153 100.156 100.159 100.163 100.169 100.177 100.186 100.2 100.218 100.245 100.285 100.351 100.475 100.751 100.818 100.542 100.418 100.351 100.311 100.285 100.266 100.253 100.243 100.235 100.23 100.225 100.222 100.219 100.217 100.216 100.214 100.213 100.212 100.212 100.211 100.211 100.211 100.211 100.211 100.211 100.211 100.211 100.211 100.211 100.212 100.212 100.213 100.214 100.216 100.217 100.219 100.222 100.225 100.23 100.235 100.243 100.253 100.266 100.285 100.311 100.351 100.418 100.542 100.818 100.942 100.666 100.542 100.475 100.435 100.409 100.39 100.377 100.367 100.359 100.354 100.349 100.346 100.343 100.341 100.34 100.338 100.337 100.336 100.336 100.335 100.335 100.335 100.335 100.335 100.335 100.335 100.335 100.335 100.335 100.336 100.336 100.337 100.338 100.34 100.341 100.343 100.346 100.349 100.354 100.359 100.367 100.377 100.39 100.409 100.435 100.475 100.542 100.666 100.942 101.218 100.942 100.818 100.751 100.711 100.685 100.666 100.653 100.643 100.635 100.63 100.625 100.622 100.619 100.617 100.616 100.614 100.613 100.612 100.612 100.611 100.611 100.611 100.611 100.611 100.611 100.611 100.611 100.611 100.611 100.612 100.612 100.613 100.614 100.616 100.617 100.619 100.622 100.625 100.63 100.