<?xml version="1.0"?>
<VTKFile type="ImageData" version="0.1" byte_order="LittleEndian">
  <ImageData WholeExtent="0 29 0 29 0 29" Origin="0 0 0" Spacing="1 1 1">
    <Piece Extent="0 29 0 29 0 29">
      <PointData Scalars="temperature">
        <DataArray type="Float64" Name="temperature" format="ascii">
100 100 100 100 100 100 100 100 100 100 100 100 100 100 100 100 100 100 100 100 100 100 100 100 100 100 100 100 100 100 100 100 100 100 100 100 100 100 100 100 100 100 100 100 100 100 100 100 100 100 100 100 100 100 100 100 100 100 100 100 100 100 100 100 100 100 100 100 100 100 100 100 100 100 100 100 100 100 100 100 100 100 100 100 100 100 100 100 100 100 100 100 100 100 100 100 100 100 100 100 100 100 100 100 100 100 100 100 100 100 100 100 100 100 100 100 100 100 100 100 100 100 100 100 100 100 100 100 100 100 100 100 100 100 100 100 100 100 100 100 100 100 100 100 100 100 100 100 100 100 100 100 100 100 100 100 100 100 100 100 100 100 100 100 100 100 100 100 100 100 100 100 100 100 100 100 100 100 100 100 100 100 100 100 100 100 100 100 100 100 100 100 100 100 100 100 100 100 100 100 100 100 100 100 100 100 100 100 100 100 100 100 100 100 100 100 100 100 100 100 100 100 100 100 100 100 100 100 100 100 100 100 100 100 100 100 100 100 100 100 100 100 100 100 100 100 100 100 100 100 100 100 100 100 100 100 100 100 100 100 100 100 100 100 100 100 100 100 100 100 100 100 100 100 100 100 100 100 100 100 100 100 100 100 100 100 100 100 100 100 100 100 100 100 100 100 100 100 100 100 100 100 100 100 100 100 100 100 100 100 100 100 100 100 100 100 100 100 100 100 100 100 100 100 100 100 100 100 100 100 100 100 100 100 100 100 100 100 100 100 100 100 100 100 100 100 100 100 100 100 100 100 100 100 100 100 100 100 100 100 100 100 100 100 100 100 100 100 100 100 100 100 100 100 100 100 100 100 100 100 100 100 100 100 100 100 100 100 100 100 100 100 100 100 100 100 100 100 100 100 100 100 100 100 100 100 100 100 100 100 100 100 100 100 100 100 100 100 100 100 100 100 100 100 100 100 100 100 100 100 100 100 100 100 100 100 100 100 100 100 100 100 100 100 100 100 100 100 100 100 100 100 100 100 100 100 100 100 100 100 100 100 100 100 100 100 100 100 100 100 100 100 100 100 100 100 100 100 100 100 100 100 100 100 100 100 100 100 100 100 100 100 100 100 100 100 100 100 100 100 100 100 100 100 100 100 100 100 100 100 100 100 100 100 100 100 100 100 100 100 100 100 100 100 100 100 100 100 100 100 100 100 100 100 100 100 100 100 100 100 100 100 100 100 100 100 100 100 100 100 100 100 100 100 100 100 100 100 100 100 100 100 100 100 100 100 100 100 100 100 100 100 100 100 100 100 100 100 100 100 100 100 100 100 100 100 100 100 100 100 100 100 100 100 100 100 100 100 100 100 100 100 100 100 100 100 100 100 100 100 100 100 100 100 100 100 100 100 100 100 100 100 100 100 100 100 100 100 100 100 100 100 100 100 100 100 100 100 100 100 100 100 100 100 100 100 100 100 100 100 100 100 100 100 100 100 100 100 100 100 100 100 100 100 100 100 100 100 100 100 100 100 100 100 100 100 100 100 100 100 100 100 100 100 100 100 100 100 100 100 100 100 100 100 100 100 100 100 100 100 100 100 100 100 100 100 100 100 100 100 100 100 100 100 100 100 100 100 100 100 100 100 100 100 100 100 100 100 100 100 100 100 100 100 100 100 100 100 100 100 100 100 100 100 100 100 100 100 100 100 100 100 100 100 100 100 100 100 100 100 100 100 100 100 100 100 100 100 100 100 100 100 100 100 100 100 100 100 100 100 100 100 100 100 100 100 100 100 100 100 100 100 100 100 100 100 100 100 100 100 100 100 100 100 100 100 100 100 100 100 100 100 100 100 100 100 100 100 100 100 100 100 100 100 100 100 100 100 100 100 100 100 100 100 100 100 100 100 100 100 100 100 100 100 100 100 100 100 100 100 100 100 100 100 100 100 100 100 100 100 100 100 100 100 100 100 100 100 100 100 100 100 100 100 100 100 100 100 100 100 100 100 100 100 100 100 100 100 100 100 100 100 100 100 100 100 100 100 100 100 91.342 89.0446 87.4966 86.4358 85.667 85.0806 84.6152 84.2339 83.9132 83.6372 83.3944 83.176 82.975 82.7857 82.603 82.422 82.238 82.046 81.8406 81.6151 81.3616 81.0693 80.7235 80.3027 79.7724 79.073 78.0886 76.5616 73.8281 67.9036 100 95.6324 93.6263 92.443 91.633 91.0294 90.5554 90.1692 89.8456 89.5676 89.3234 89.104 88.9023 88.7125 88.5293 88.348 88.1637 87.9715 87.7659 87.5403 87.2866 86.9942 86.6484 86.2275 85.6971 84.9976 84.0131 82.4862 79.7527 73.8281 100 97.7026 96.1546 95.0938 94.325 93.7386 93.2732 92.8919 92.5712 92.2953 92.0524 91.834 91.633 91.4437 91.261 91.08 90.896 90.704 90.4986 90.2731 90.0196 89.7273 89.3815 88.9607 88.4304 87.731 86.7466 85.2196 82.4862 76.5616 100 98.4998 97.3297 96.4365 95.7459 95.1994 94.7559 94.3878 94.0756 93.8052 93.5662 93.3506 93.1518 92.9641 92.7826 92.6027 92.4195 92.2282 92.0234 91.7984 91.5452 91.2532 90.9078 90.4872 89.9571 89.2578 88.2735 86.7466 84.0131 78.0886 100 98.8711 97.9458 97.1955 96.5867 96.0881 95.6738 95.3243 95.0243 94.7624 94.5295 94.3184 94.1229 93.9378 93.7584 93.58 93.3982 93.2081 93.0041 92.7799 92.5274 92.236 91.891 91.4709 90.9411 90.242 89.2578 87.731 84.9976 79.073 100 99.0726 98.3045 97.663 97.126 96.6743 96.2912 95.9628 95.6774 95.426 95.2007 94.9953 94.8042 94.6225 94.4458 94.2697 94.0897 93.9011 93.6984 93.4753 93.2237 92.9331 92.5888 92.1691 91.6398 90.9411 89.9571 88.4304 85.6971 79.7724 100 99.1953 98.5318 97.9709 97.4929 97.0833 96.7301 96.4231 96.1533 95.9133 95.6967 95.4979 95.3119 95.1344 94.961 94.7876 94.6098 94.4231 94.2221 94.0003 93.7499 93.4603 93.1168 92.6979 92.1691 91.4709 90.4872 88.9607 86.2275 80.3027 100 99.2763 98.6854 98.1847 97.754 97.3805 97.0546 96.768 96.5138 96.2856 96.0782 95.8865 95.7063 95.5334 95.3638 95.1935 95.0184 94.8339 94.6348 94.4147 94.1657 93.8773 93.5349 93.1168 92.5888 91.891 90.9078 89.3815 86.6484 80.7235 100 99.3331 98.7949 98.3398 97.9469 97.6038 97.3019 97.0343 96.7949 96.5785 96.3803 96.1962 96.022 95.8541 95.6886 95.5219 95.3498 95.1678 94.9709 94.7528 94.5055 94.2185 93.8773 93.4603 92.9331 92.236 91.2532 89.7273 86.9942 81.0693 100 99.3749 98.8761 98.4564 98.0939 97.7764 97.4955 97.245 97.0195 96.8144 96.6254 96.4488 96.281 96.1183 95.9573 95.7944 95.6255 95.4465 95.2521 95.0361 94.7907 94.5055 94.1657 93.7499 93.2237 92.5274 91.5452 90.0196 87.2866 81.3616 100 99.4069 98.9386 98.5469 98.2093 97.9133 97.6507 97.4156 97.2029 97.0085 96.8285 96.6595 96.498 96.3408 96.1845 96.0256 95.8604 95.6844 95.4928 95.2793 95.0361 94.7528 94.4147 94.0003 93.4753 92.7799 91.7984 90.2731 87.5403 81.6151 100 99.4322 98.9883 98.6193 98.3023 98.0246 97.778 97.5567 97.3558 97.1716 97.0003 96.8387 96.6836 96.532 96.3806 96.226 96.0646 95.8921 95.7036 95.4928 95.2521 94.9709 94.6348 94.2221 93.6984 93.0041 92.0234 90.4986 87.7659 81.8406 100 99.4528 99.0289 98.6788 98.3793 98.1175 97.885 97.6761 97.4862 97.3115 97.1486 96.9943 96.8457 96.6997 96.5534 96.4034 96.2461 96.0773 95.8921 95.6844 95.4465 95.1678 94.8339 94.4231 93.9011 93.2081 92.2282 90.704 87.9715 82.046 100 99.4701 99.0631 98.7292 98.4448 98.1969 97.9771 97.7796 97.5999 97.4343 97.2794 97.1323 96.9902 96.8501 96.709 96.5637 96.4108 96.2461 96.0646 95.8604 95.6255 95.3498 95.0184 94.6098 94.0897 93.3982 92.4195 90.896 88.1637 82.238 100 99.4851 99.0928 98.7731 98.5021 98.2667 98.0585 97.8715 97.7014 97.5445 97.3976 97.2576 97.122 96.9878 96.8522 96.712 96.5637 96.4034 96.226 96.0256 95.7944 95.5219 95.1935 94.7876 94.2697 93.58 92.6027 91.08 88.348 82.422 100 99.4985 99.1194 98.8125 98.5537 98.3298 98.1323 97.9554 97.7945 97.646 97.5068 97.3741 97.245 97.1169 96.987 96.8522 96.709 96.5534 96.3806 96.1845 95.9573 95.6886 95.3638 94.961 94.4458 93.7584 92.7826 91.261 88.5293 82.603 100 99.5109 99.144 98.849 98.6016 98.3886 98.2014 98.0341 97.8821 97.7419 97.6105 97.4849 97.3626 97.2409 97.1169 96.9878 96.8501 96.6997 96.532 96.3408 96.1183 95.8541 95.5334 95.1344 94.6225 93.9378 92.9641 91.4437 88.7125 82.7857 100 99.5227 99.1675 98.8839 98.6476 98.4451 98.2679 98.1099 97.9668 97.835 97.7113 97.5931 97.4777 97.3626 97.245 97.122 96.9902 96.8457 96.6836 96.498 96.281 96.022 95.7063 95.3119 94.8042 94.1229 93.1518 91.633 88.9023 82.975 100 99.5344 99.1908 98.9184 98.693 98.501 98.3337 98.1852 98.0511 97.9276 97.8119 97.7013 97.5931 97.4849 97.3741 97.2576 97.1323 96.9943 96.8387 96.6595 96.4488 96.1962 95.8865 95.4979 94.9953 94.3184 93.3506 91.834 89.104 83.176 100 99.5463 99.2145 98.9537 98.7394 98.558 98.4009 98.2621 98.137 98.0222 97.9147 97.8119 97.7113 97.6105 97.5068 97.3976 97.2794 97.1486 97.0003 96.8285 96.6254 96.3803 96.0782 95.6967 95.2007 94.5295 93.5662 92.0524 89.3234 83.3944 100 99.5589 99.2395 98.9908 98.7882 98.6179 98.4714 98.3425 98.2269 98.1211 98.0222 97.9276 97.835 97.7419 97.646 97.5445 97.4343 97.3115 97.1716 97.0085 96.8144 96.5785 96.2856 95.9133 95.426 94.7624 93.8052 92.2953 89.5676 83.6372 100 99.5726 99.2668 99.0311 98.841 98.6826 98.5473 98.429 98.3233 98.2269 98.137 98.0511 97.9668 97.8821 97.7945 97.7014 97.5999 97.4862 97.3558 97.2029 97.0195 96.7949 96.5138 96.1533 95.6774 95.0243 94.0756 92.5712 89.8456 83.9132 100 99.5881 99.2973 99.0762 98.8998 98.7544 98.6311 98.5241 98.429 98.3425 98.2621 98.1852 98.1099 98.0341 97.9554 97.8715 97.7796 97.6761 97.5567 97.4156 97.245 97.0343 96.768 96.4231 95.9628 95.3243 94.3878 92.8919 90.1692 84.2339 100 99.6061 99.3327 99.1282 98.9673 98.8361 98.726 98.6311 98.5473 98.4714 98.4009 98.3337 98.2679 98.2014 98.1323 98.0585 97.9771 97.885 97.778 97.6507 97.4955 97.3019 97.0546 96.7301 96.2912 95.6738 94.7559 93.2732 90.5554 84.6152 100 99.6278 99.3753 99.1901 99.0469 98.9317 98.8361 98.7544 98.6826 98.6179 98.558 98.501 98.4451 98.3886 98.3298 98.2667 98.1969 98.1175 98.0246 97.9133 97.7764 97.6038 97.3805 97.0833 96.6743 96.0881 95.1994 93.7386 91.0294 85.0806 100 99.6551 99.4284 99.2665 99.1439 99.0469 98.9673 98.8998 98.841 98.7882 98.7394 98.693 98.6476 98.6016 98.5537 98.5021 98.4448 98.3793 98.3023 98.2093 98.0939 97.9469 97.754 97.4929 97.126 96.5867 95.7459 94.325 91.633 85.667 100 99.6917 99.4981 99.3648 99.2665 99.1901 99.1282 99.0762 99.0311 98.9908 98.9537 98.9184 98.8839 98.849 98.8125 98.7731 98.7292 98.6788 98.6193 98.5469 98.4564 98.3398 98.1847 97.9709 97.663 97.1955 96.4365 95.0938 92.443 86.4358 100 99.7446 99.5957 99.4981 99.4284 99.3753 99.3327 99.2973 99.2668 99.2395 99.2145 99.1908 99.1675 99.144 99.1194 99.0928 99.0631 99.0289 98.9883 98.9386 98.8761 98.7949 98.6854 98.5318 98.3045 97.9458 97.3297 96.1546 93.6263 87.4966 100 99.8311 99.7446 99.6917 99.6551 99.6278 99.6061 99.5881 99.5726 99.5589 99.5463 99.5344 99.5227 99.5109 99.4985 99.4851 99.4701 99.4528 99.4322 99.4069 99.3749 99.3331 99.2763 99.1953 99.0726 98.8711 98.4998 97.7026 95.6324 89.0446 100 100 100 100 100 100 100 100 100 100 100 100 100 100 100 100 100 100 100 100 100 100 100 100 100 100 100 100 100 100 91.342 87.4966 84.7277 82.7459 81.2729 80.1334 79.2211 78.47 77.8361 77.2892 76.8073 76.3733 75.9738 75.5974 75.234 74.8743 74.5089 74.1282 73.7214 73.2761 72.7767 72.2037 71.5303 70.7187 69.7124 68.4224 66.7011 64.2958 60.7864 55.6378 100 93.6263 90.2167 88.0427 86.4993 85.3285 84.4002 83.6397 83.0001 82.4493 81.9647 81.5288 81.1279 80.7504 80.3862 80.0258 79.6599 79.2787 78.8715 78.4258 77.9262 77.353 76.6794 75.8676 74.8612 73.5711 71.8497 69.4444 65.935 60.7864 100 96.1546 93.3857 91.404 89.931 88.7914 87.8792 87.128 86.4941 85.9472 85.4653 85.0313 84.6318 84.2554 83.892 83.5323 83.167 82.7862 82.3795 81.9341 81.4347 80.8617 80.1883 79.3767 78.3704 77.0804 75.3591 72.9538 69.4444 64.2958 100 97.3297 95.1636 93.4675 92.1346 91.0687 90.1982 89.4723 88.8547 88.3188 87.8445 87.4161 87.0208 86.6476 86.2868 85.929 85.5653 85.1859 84.7803 84.3358 83.8373 83.265 82.5921 81.781 80.7751 79.4853 77.7642 75.3591 71.8497 66.7011 100 97.9458 96.2024 94.7621 93.5798 92.604 91.7893 91.0992 90.5056 89.9863 89.5239 89.1043 88.7156 88.3475 87.9907 87.6363 87.2752 86.8981 86.4942 86.0514 85.5542 84.9829 84.311 83.5007 82.4954 81.2061 79.4853 77.0804 73.5711 68.4224 100 98.3045 96.846 95.6067 94.5594 93.6732 92.9184 92.2692 91.7042 91.2053 90.7579 90.3496 89.9695 89.6083 89.2569 88.9068 88.5494 88.1753 87.774 87.3333 86.8379 86.2682 85.5976 84.7884 83.7839 82.4954 80.7751 78.3704 74.8612 69.7124 100 98.5318 97.2687 96.1817 95.2469 94.4416 93.7448 93.1375 92.6028 92.1266 91.6962 91.3009 90.9311 90.5779 90.2331 89.8884 89.5355 89.1652 88.7671 88.3291 87.8361 87.2684 86.5995 85.7916 84.7884 83.5007 81.781 79.3767 75.8676 70.7187 100 98.6854 97.5608 96.5891 95.7454 95.0102 94.3664 93.7991 93.2949 92.842 92.4297 92.0486 91.6901 91.3461 91.0088 90.6704 90.3227 89.9568 89.5626 89.1279 88.6377 88.0725 87.4057 86.5995 85.5976 84.311 82.5921 80.1883 76.6794 71.5303 100 98.7949 97.7717 96.8883 96.1181 95.4421 94.8455 94.3153 93.8403 93.4104 93.0166 92.6503 92.3038 91.9697 91.6407 91.3093 90.9675 90.6067 90.2169 89.7861 89.2992 88.7369 88.0725 87.2684 86.2682 84.9829 83.265 80.8617 77.353 72.2037 100 98.8761 97.9297 97.1152 96.4045 95.7785 95.2231 94.7266 94.279 93.8714 93.4958 93.1445 92.8105 92.4869 92.1667 91.8429 91.5077 91.1526 90.7678 90.3413 89.8583 89.2992 88.6377 87.8361 86.8379 85.5542 83.8373 81.4347 77.9262 72.7767 100 98.9386 98.052 97.2924 96.6305 96.0468 95.5274 95.0612 94.639 94.2526 93.8948 93.5584 93.2371 92.9243 92.6135 92.2977 91.9696 91.6208 91.2415 90.82 90.3413 89.7861 89.1279 88.3291 87.3333 86.0514 84.3358 81.9341 78.4258 73.2761 100 98.9883 98.1495 97.4347 96.8134 96.2659 95.778 95.3391 94.9403 94.574 94.2333 93.9118 93.6032 93.3015 93.0004 92.6932 92.3728 92.0308 91.6576 91.2415 90.7678 90.2169 89.5626 88.7671 87.774 86.4942 84.7803 82.3795 78.8715 73.7214 100 99.0289 98.2295 97.5521 96.9653 96.449 95.9891 95.5749 95.1978 94.8505 94.5264 94.2194 93.9237 93.6333 93.3423 93.0441 92.7318 92.3972 92.0308 91.6208 91.1526 90.6067 89.9568 89.1652 88.1753 86.8981 85.1859 82.7862 79.2787 74.1282 100 99.0631 98.2972 97.6516 97.0948 96.6062 96.1713 95.7797 95.4229 95.0936 94.7856 94.4929 94.21 93.9312 93.6506 93.362 93.0584 92.7318 92.3728 91.9696 91.5077 90.9675 90.3227 89.5355 88.5494 87.2752 85.5653 83.167 79.6599 74.5089 100 99.0928 98.356 97.7386 97.2083 96.7445 96.3326 95.962 95.6242 95.3123 95.0199 94.7415 94.4715 94.2045 93.9348 93.6563 93.362 93.0441 92.6932 92.2977 91.8429 91.3093 90.6704 89.8884 88.9068 87.6363 85.929 83.5323 80.0258 74.8743 100 99.1194 98.4088 97.8167 97.3107 96.8698 96.4793 96.1285 95.809 95.5138 95.2369 94.9727 94.7159 94.4611 94.2027 93.9348 93.6506 93.3423 93.0004 92.6135 92.1667 91.6407 91.0088 90.2331 89.2569 87.9907 86.2868 83.892 80.3862 75.234 100 99.144 98.4577 97.8892 97.406 96.9866 96.6165 96.2848 95.9831 95.7045 95.443 95.1931 94.9497 94.7075 94.4611 94.2045 93.9312 93.6333 93.3015 92.9243 92.4869 91.9697 91.3461 90.5779 89.6083 88.3475 86.6476 84.2554 80.7504 75.5974 100 99.1675 98.5045 97.9587 97.4973 97.0989 96.7486 96.4357 96.1516 95.8895 95.6436 95.4083 95.1787 94.9497 94.7159 94.4715 94.21 93.9237 93.6032 93.2371 92.8105 92.3038 91.6901 90.9311 89.9695 88.7156 87.0208 84.6318 81.1279 75.9738 100 99.1908 98.5507 98.0273 97.5876 97.2101 96.8796 96.5855 96.3191 96.0738 95.8437 95.6235 95.4083 95.1931 94.9727 94.7415 94.4929 94.2194 93.9118 93.5584 93.1445 92.6503 92.0486 91.3009 90.3496 89.1043 87.4161 85.0313 81.5288 76.3733 100 99.2145 98.5978 98.0974 97.6798 97.3235 97.0133 96.7382 96.4901 96.262 96.0482 95.8437 95.6436 95.443 95.2369 95.0199 94.7856 94.5264 94.2333 93.8948 93.4958 93.0166 92.4297 91.6962 90.7579 89.5239 87.8445 85.4653 81.9647 76.8073 100 99.2395 98.6475 98.1711 97.7767 97.4425 97.1533 96.8982 96.6689 96.4587 96.262 96.0738 95.8895 95.7045 95.5138 95.3123 95.0936 94.8505 94.574 94.2526 93.8714 93.4104 92.842 92.1266 91.2053 89.9863 88.3188 85.9472 82.4493 77.2892 100 99.2668 98.7015 98.2511 97.8815 97.5709 97.304 97.0699 96.8604 96.6689 96.4901 96.3191 96.1516 95.9831 95.809 95.6242 95.4229 95.1978 94.9403 94.639 94.279 93.8403 93.2949 92.6028 91.7042 90.5056 88.8547 86.4941 83.0001 77.8361 100 99.2973 98.762 98.3403 97.9981 97.7131 97.4701 97.2584 97.0699 96.8982 96.7382 96.5855 96.4357 96.2848 96.1285 95.962 95.7797 95.5749 95.3391 95.0612 94.7266 94.3153 93.7991 93.1375 92.2692 91.0992 89.4723 87.128 83.6397 78.47 100 99.3327 98.8319 98.4429 98.1313 97.8746 97.6577 97.4701 97.304 97.1533 97.0133 96.8796 96.7486 96.6165 96.4793 96.3326 96.1713 95.9891 95.778 95.5274 95.2231 94.8455 94.3664 93.7448 92.9184 91.7893 90.1982 87.8792 84.4002 79.2211 100 99.3753 98.9153 98.5645 98.2878 98.0627 97.8746 97.7131 97.5709 97.4425 97.3235 97.2101 97.0989 96.9866 96.8698 96.7445 96.6062 96.449 96.2659 96.0468 95.7785 95.4421 95.0102 94.4416 93.6732 92.604 91.0687 88.7914 85.3285 80.1334 100 99.4284 99.0186 98.7133 98.477 98.2878 98.1313 97.9981 97.8815 97.7767 97.6798 97.5876 97.4973 97.406 97.3107 97.2083 97.0948 96.9653 96.8134 96.6305 96.4045 96.1181 95.7454 95.2469 94.5594 93.5798 92.1346 89.931 86.4993 81.2729 100 99.4981 99.152 98.9022 98.7133 98.5645 98.4429 98.3403 98.2511 98.1711 98.0974 98.0273 97.9587 97.8892 97.8167 97.7386 97.6516 97.5521 97.4347 97.2924 97.1152 96.8883 96.5891 96.1817 95.6067 94.7621 93.4675 91.404 88.0427 82.7459 100 99.5957 99.3335 99.152 99.0186 98.9153 98.8319 98.762 98.7015 98.6475 98.5978 98.5507 98.5045 98.4577 98.4088 98.356 98.2972 98.2295 98.1495 98.052 97.9297 97.7717 97.5608 97.2687 96.846 96.2024 95.1636 93.3857 90.2167 84.7277 100 99.7446 99.5957 99.4981 99.4284 99.3753 99.3327 99.2973 99.2668 99.2395 99.2145 99.1908 99.1675 99.144 99.1194 99.0928 99.0631 99.0289 98.9883 98.9386 98.8761 98.7949 98.6854 98.5318 98.3045 97.9458 97.3297 96.1546 93.6263 87.4966 100 100 100 100 100 100 100 100 100 100 100 100 100 100 100 100 100 100 100 100 100 100 100 100 100 100 100 100 100 100 91.342 86.4358 82.7459 80.0083 77.9221 76.2816 74.9542 73.8534 72.9199 72.1117 71.3977 70.7537 70.1604 69.601 69.0612 68.5271 67.9853 67.4219 66.8215 66.1664 65.4356 64.6024 63.632 62.4777 61.0742 59.3282 57.1053 54.218 50.4327 45.56 100 92.443 88.0427 85.0774 82.9023 81.2203 79.8709 78.7569 77.8151 77.0014 76.2835 75.6367 75.0413 74.4803 73.9392 73.4041 72.8615 72.2974 71.6965 71.041 70.3097 69.4761 68.5055 67.351 65.9473 64.2011 61.9782 59.0908 55.3055 50.4327 100 95.0938 91.404 88.6663 86.5801 84.9396 83.6123 82.5114 81.5779 80.7697 80.0557 79.4118 78.8184 78.259 77.7192 77.1851 76.6433 76.0799 75.4795 74.8245 74.0936 73.2604 72.29 71.1357 69.7322 67.9862 65.7633 62.876 59.0908 54.218 100 96.4365 93.4675 91.0882 89.1853 87.6445 86.3751 85.31 84.3998 83.6074 82.9046 82.2689 81.6816 81.127 80.5909 80.0597 79.5204 78.959 78.3602 77.7066 76.977 76.1447 75.1752 74.0216 72.6187 70.8731 68.6505 65.7633 61.9782 57.1053 100 97.1955 94.7621 92.7172 91.017 89.6003 88.4091 87.395 86.5192 85.751 85.0655 84.4426 83.8651 83.3181 82.7879 82.2616 81.7262 81.1681 80.5721 79.9208 79.1931 78.3626 77.3945 76.242 74.84 73.0951 70.8731 67.9862 64.2011 59.3282 100 97.663 95.6067 93.8333 92.3187 91.0272 89.9209 88.9654 88.1308 87.3923 86.7288 86.1224 85.5576 85.0206 84.4984 83.9787 83.4487 82.8951 82.3029 81.6548 80.9299 80.1016 79.1354 77.9846 76.5839 74.84 72.6187 69.7322 65.9473 61.0742 100 97.9709 96.1817 94.619 93.2619 92.085 91.0616 90.1662 89.3759 88.6702 88.0316 87.4444 86.8947 86.3697 85.8573 85.3455 84.8222 84.2742 83.6868 83.0428 82.3213 81.496 80.5324 79.3837 77.9846 76.242 74.0216 71.1357 67.351 62.4777 100 98.1847 96.5891 95.1887 93.9609 92.8841 91.9371 91.0998 90.3538 89.6823 89.0702 88.5039 87.9709 87.4594 86.9582 86.4557 85.9402 85.3988 84.8171 84.178 83.4607 82.6391 81.6785 80.5324 79.1354 77.3945 75.1752 72.29 68.5055 63.632 100 98.3398 96.8883 95.6138 94.4915 93.5003 92.6215 91.8382 91.1348 90.4972 89.9122 89.3677 88.8525 88.3558 87.8667 87.3746 86.8679 86.3341 85.759 85.1256 84.4133 83.596 82.6391 81.496 80.1016 78.3626 76.1447 73.2604 69.4761 64.6024 100 98.4564 97.1152 95.9401 94.9038 93.9851 93.1665 92.4324 91.7692 91.1643 90.6062 90.0839 89.5872 89.1059 88.63 88.1492 87.6522 87.1269 86.5592 85.9323 85.2257 84.4133 83.4607 82.3213 80.9299 79.1931 76.977 74.0936 70.3097 65.4356 100 98.5469 97.2924 96.197 95.2318 94.3749 93.6089 92.9193 92.2934 91.7198 91.1879 90.6878 90.2098 89.7446 89.2826 88.8138 88.3274 87.8114 87.2519 86.6324 85.9323 85.1256 84.178 83.0428 81.6548 79.9208 77.7066 74.8245 71.041 66.1664 100 98.6193 97.4347 96.4047 95.4989 94.695 93.9753 93.3259 92.7346 92.1906 91.6842 91.2059 90.7469 90.2982 89.8506 89.3946 88.9195 88.4137 87.8633 87.2519 86.5592 85.759 84.8171 83.6868 82.3029 80.5721 78.3602 75.4795 71.6965 66.8215 100 98.6788 97.5521 96.5769 95.7218 94.9639 94.2855 93.6725 93.1133 92.5974 92.1155 91.6588 91.2188 90.7869 90.3544 89.9118 89.4489 88.954 88.4137 87.8114 87.1269 86.3341 85.3988 84.2742 82.8951 81.1681 78.959 76.0799 72.2974 67.4219 100 98.7292 97.6516 96.7235 95.9126 95.1954 94.5541 93.9746 93.4453 92.9561 92.4981 92.0627 91.6418 91.2271 90.8101 90.3817 89.9318 89.4489 88.9195 88.3274 87.6522 86.8679 85.9402 84.8222 83.4487 81.7262 79.5204 76.6433 72.8615 67.9853 100 98.7731 97.7386 96.8519 96.0804 95.3999 94.7925 94.2441 93.7431 93.2797 92.8449 92.4307 92.0291 91.632 91.2312 90.8177 90.3817 89.9118 89.3946 88.8138 88.1492 87.3746 86.4557 85.3455 83.9787 82.2616 80.0597 77.1851 73.4041 68.5271 100 98.8125 97.8167 96.9677 96.232 95.5855 95.0099 94.4909 94.017 93.5786 93.1668 92.7738 92.3916 92.0127 91.6288 91.2312 90.8101 90.3544 89.8506 89.2826 88.63 87.8667 86.9582 85.8573 84.4984 82.7879 80.5909 77.7192 73.9392 69.0612 100 98.849 97.8892 97.0752 96.3733 95.7589 95.2135 94.7229 94.2755 93.8617 93.4728 93.1011 92.739 92.3788 92.0127 91.632 91.2271 90.7869 90.2982 89.7446 89.1059 88.3558 87.4594 86.3697 85.0206 83.3181 81.127 78.259 74.4803 69.601 100 98.8839 97.9587 97.1783 96.5089 95.9256 95.4098 94.9471 94.5259 94.1367 93.771 93.4211 93.0796 92.739 92.3916 92.0291 91.6418 91.2188 90.7469 90.2098 89.5872 88.8525 87.9709 86.8947 85.5576 83.8651 81.6816 78.8184 75.0413 70.1604 100 98.9184 98.0273 97.2803 96.6432 96.0909 95.6045 95.1697 94.775 94.4108 94.0687 93.7412 93.4211 93.1011 92.7738 92.4307 92.0627 91.6588 91.2059 90.6878 90.0839 89.3677 88.5039 87.4444 86.1224 84.4426 82.2689 79.4118 75.6367 70.7537 100 98.9537 98.0974 97.3844 96.7802 96.2594 95.8031 95.3968 95.0292 94.6906 94.3729 94.0687 93.771 93.4728 93.1668 92.8449 92.4981 92.1155 91.6842 91.1879 90.6062 89.9122 89.0702 88.0316 86.7288 85.0655 82.9046 80.0557 76.2835 71.3977 100 98.9908 98.1711 97.4938 96.924 96.4361 96.0111 95.6345 95.2948 94.9829 94.6906 94.4108 94.1367 93.8617 93.5786 93.2797 92.9561 92.5974 92.1906 91.7198 91.1643 90.4972 89.6823 88.6702 87.3923 85.751 83.6074 80.7697 77.0014 72.1117 100 99.0311 98.2511 97.6122 97.0793 96.6264 96.2345 95.889 95.5789 95.2948 95.0292 94.775 94.5259 94.2755 94.017 93.7431 93.4453 93.1133 92.7346 92.2934 91.7692 91.1348 90.3538 89.3759 88.1308 86.5192 84.3998 81.5779 77.8151 72.9199 100 99.0762 98.3403 97.744 97.2514 96.8365 96.4801 96.168 95.889 95.6345 95.3968 95.1697 94.9471 94.7229 94.4909 94.2441 93.9746 93.6725 93.3259 92.9193 92.4324 91.8382 91.0998 90.1662 88.9654 87.395 85.31 82.5114 78.7569 73.8534 100 99.1282 98.4429 97.8948 97.4473 97.0742 96.7565 96.4801 96.2345 96.0111 95.8031 95.6045 95.4098 95.2135 95.0099 94.7925 94.5541 94.2855 93.9753 93.6089 93.1665 92.6215 91.9371 91.0616 89.9209 88.4091 86.3751 83.6123 79.8709 74.9542 100 99.1901 98.5645 98.0722 97.676 97.3496 97.0742 96.8365 96.6264 96.4361 96.2594 96.0909 95.9256 95.7589 95.5855 95.3999 95.1954 94.9639 94.695 94.3749 93.9851 93.5003 92.8841 92.085 91.0272 89.6003 87.6445 84.9396 81.2203 76.2816 100 99.2665 98.7133 98.2871 97.95 97.676 97.4473 97.2514 97.0793 96.924 96.7802 96.6432 96.5089 96.3733 96.232 96.0804 95.9126 95.7218 95.4989 95.2318 94.9038 94.4915 93.9609 93.2619 92.3187 91.017 89.1853 86.5801 82.9023 77.9221 100 99.3648 98.9022 98.5555 98.2871 98.0722 97.8948 97.744 97.6122 97.4938 97.3844 97.2803 97.1783 97.0752 96.9677 96.8519 96.7235 96.5769 96.4047 96.197 95.9401 95.6138 95.1887 94.619 93.8333 92.7172 91.0882 88.6663 85.0774 80.0083 100 99.4981 99.152 98.9022 98.7133 98.5645 98.4429 98.3403 98.2511 98.1711 98.0974 98.0273 97.9587 97.8892 97.8167 97.7386 97.6516 97.5521 97.4347 97.2924 97.1152 96.8883 96.5891 96.1817 95.6067 94.7621 93.4675 91.404 88.0427 82.7459 100 99.6917 99.4981 99.3648 99.2665 99.1901 99.1282 99.0762 99.0311 98.9908 98.9537 98.9184 98.8839 98.849 98.8125 98.7731 98.7292 98.6788 98.6193 98.5469 98.4564 98.3398 98.1847 97.9709 97.663 97.1955 96.4365 95.0938 92.443 86.4358 100 100 100 100 100 100 100 100 100 100 100 100 100 100 100 100 100 100 100 100 100 100 100 100 100 100 100 100 100 100 91.342 85.667 81.2729 77.9221 75.3134 73.2299 71.5252 70.1001 68.8846 67.828 66.8916 66.0455 65.2647 64.5284 63.8179 63.1156 62.4044 61.6667 60.8832 60.0322 59.0884 58.0207 56.79 55.3464 53.6246 51.5391 48.9802 45.8152 41.9061 37.1572 100 91.633 86.4993 82.9023 80.1934 78.0611 76.3297 74.8884 73.6626 72.5988 71.6576 70.8077 70.0243 69.2859 68.5737 67.8701 67.1579 66.4192 65.635 64.7834 63.8391 62.7709 61.5399 60.096 58.3739 56.2882 53.7292 50.5641 46.655 41.9061 100 94.325 89.931 86.5801 83.9715 81.8879 80.1832 78.7581 77.5426 76.486 75.5497 74.7035 73.9227 73.1864 72.4759 71.7736 71.0624 70.3247 69.5412 68.6903 67.7464 66.6787 65.448 64.0044 62.2826 60.1971 57.6382 54.4732 50.5641 45.8152 100 95.7459 92.1346 89.1853 86.7888 84.8239 83.1898 81.8091 80.6229 79.5865 78.6645 77.8288 77.0561 76.3259 75.6202 74.9219 74.2139 73.4788 72.6975 71.8484 70.9061 69.8397 68.6102 67.1675 65.4464 63.3615 60.8029 57.6382 53.7292 48.9802 100 96.5867 93.5798 91.017 88.8603 87.0453 85.5075 84.1905 83.0479 82.0422 81.1425 80.3234 79.5633 78.843 78.1452 77.4531 76.7504 76.0196 75.2419 74.3959 73.4563 72.392 71.1643 69.7232 68.0033 65.9193 63.3615 60.1971 56.2882 51.5391 100 97.126 94.5594 92.3187 90.3861 88.7246 87.2924 86.049 84.9588 83.9911 83.1197 82.3221 81.5785 80.8713 80.1839 79.5005 78.8048 78.0799 77.3072 76.4655 75.5294 74.4683 73.2432 71.8041 70.086 68.0033 65.4464 62.2826 58.3739 53.6246 100 97.4929 95.2469 93.2619 91.5225 90.0035 88.6753 87.5082 86.4743 85.5489 84.7097 83.9369 83.213 82.5215 81.8469 81.1739 80.487 79.7695 79.0031 78.1667 77.2353 76.1781 74.9563 73.52 71.8041 69.7232 67.1675 64.0044 60.096 55.3464 100 97.754 95.7454 93.9609 92.3827 90.9895 89.758 88.6649 87.6879 86.8064 86.0015 85.256 84.5539 83.8801 83.2201 82.5593 81.8826 81.1739 80.415 79.5851 78.6593 77.6068 76.3891 74.9563 73.2432 71.1643 68.6102 65.448 61.5399 56.79 100 97.9469 96.1181 94.4915 93.0461 91.7613 90.6169 89.593 88.671 87.8334 87.0636 86.3466 85.6677 85.0132 84.3693 83.7221 83.0571 82.3583 81.6081 80.7858 79.8665 78.8197 77.6068 76.1781 74.4683 72.392 69.8397 66.6787 62.7709 58.0207 100 98.0939 96.4045 94.9038 93.568 92.376 91.3086 90.3482 89.4782 88.6831 87.9484 87.2603 86.6056 85.9714 85.3448 84.7124 84.0602 83.3726 82.6322 81.8184 80.9067 79.8665 78.6593 77.2353 75.5294 73.4563 70.9061 67.7464 63.8391 59.0884 100 98.2093 96.6305 95.2318 93.9871 92.8745 91.8751 90.9723 90.1508 89.3965 88.696 88.0369 87.4068 86.7937 86.1853 85.5688 84.9305 84.2553 83.5257 82.7216 81.8184 80.7858 79.5851 78.1667 76.4655 74.3959 71.8484 68.6903 64.7834 60.0322 100 98.3023 96.8134 95.4989 94.331 93.2869 92.3477 91.4971 90.7206 90.005 89.3378 88.7074 88.1022 87.5108 86.9214 86.3217 85.6984 85.0365 84.319 83.5257 82.6322 81.6081 80.415 79.0031 77.3072 75.2419 72.6975 69.5412 65.635 60.8832 100 98.3793 96.9653 95.7218 94.6197 93.6355 92.75 91.9469 91.2123 90.5334 89.8985 89.2964 88.7163 88.147 87.5774 86.9955 86.3882 85.7408 85.0365 84.2553 83.3726 82.3583 81.1739 79.7695 78.0799 76.0196 73.4788 70.3247 66.4192 61.6667 100 98.4448 97.0948 95.9126 94.8681 93.937 93.0999 92.3406 91.6452 91.0015 90.3979 89.8239 89.2688 88.7222 88.1731 87.6099 87.0198 86.3882 85.6984 84.9305 84.0602 83.0571 81.8826 80.487 78.8048 76.7504 74.2139 71.0624 67.1579 62.4044 100 98.5021 97.2083 96.0804 95.0872 94.2042 93.4116 92.6932 92.035 91.425 90.8521 90.3059 89.7763 89.2529 88.7252 88.1817 87.6099 86.9955 86.3217 85.5688 84.7124 83.7221 82.5593 81.1739 79.5005 77.4531 74.9219 71.7736 67.8701 63.1156 100 98.5537 97.3107 96.232 95.286 94.4476 93.6966 93.0169 92.3944 91.8174 91.2748 90.7565 90.2526 89.7531 89.2477 88.7252 88.1731 87.5774 86.9214 86.1853 85.3448 84.3693 83.2201 81.8469 80.1839 78.1452 75.6202 72.4759 68.5737 63.8179 100 98.6016 97.406 96.3733 95.4716 94.6753 93.9643 93.3218 92.7343 92.1897 91.6773 91.1872 90.7097 90.235 89.7531 89.2529 88.7222 88.147 87.5108 86.7937 85.9714 85.0132 83.8801 82.5215 80.8713 78.843 76.3259 73.1864 69.2859 64.5284 100 98.6476 97.4973 96.5089 95.6501 94.8948 94.2226 93.617 93.064 92.5519 92.0701 91.6087 91.1584 90.7097 90.2526 89.7763 89.2688 88.7163 88.1022 87.4068 86.6056 85.6677 84.5539 83.213 81.5785 79.5633 77.0561 73.9227 70.0243 65.2647 100 98.693 97.5876 96.6432 95.8268 95.1124 94.4791 93.9103 93.3922 92.9131 92.4624 92.0307 91.6087 91.1872 90.7565 90.3059 89.8239 89.2964 88.7074 88.0369 87.2603 86.3466 85.256 83.9369 82.3221 80.3234 77.8288 74.7035 70.8077 66.0455 100 98.7394 97.6798 96.7802 96.0071 95.3342 94.7406 94.2095 93.7271 93.2818 92.8633 92.4624 92.0701 91.6773 91.2748 90.8521 90.3979 89.8985 89.3378 88.696 87.9484 87.0636 86.0015 84.7097 83.1197 81.1425 78.6645 75.5497 71.6576 66.8916 100 98.7882 97.7767 96.924 96.1962 95.5666 95.0142 94.5222 94.0768 93.6667 93.2818 92.9131 92.5519 92.1897 91.8174 91.425 91.0015 90.5334 90.005 89.3965 88.6831 87.8334 86.8064 85.5489 83.9911 82.0422 79.5865 76.486 72.5988 67.828 100 98.841 97.8815 97.0793 96.3999 95.8164 95.3075 94.8566 94.4501 94.0768 93.7271 93.3922 93.064 92.7343 92.3944 92.035 91.6452 91.2123 90.7206 90.1508 89.4782 88.671 87.6879 86.4743 84.9588 83.0479 80.6229 77.5426 73.6626 68.8846 100 98.8998 97.9981 97.2514 96.6249 96.0912 95.6291 95.222 94.8566 94.5222 94.2095 93.9103 93.617 93.3218 93.0169 92.6932 92.3406 91.9469 91.4971 90.9723 90.3482 89.593 88.6649 87.5082 86.049 84.1905 81.8091 78.7581 74.8884 70.1001 100 98.9673 98.1313 97.4473 96.8797 96.4007 95.9893 95.6291 95.3075 95.0142 94.7406 94.4791 94.2226 93.9643 93